ITEM: TIMESTEP
0
ITEM: NUMBER OF ATOMS
9
ITEM: BOX BOUNDS pp pp pp
-8.0000000000000000e+00 8.0000000000000000e+00
-8.0000000000000000e+00 8.0000000000000000e+00
-8.0000000000000000e+00 8.0000000000000000e+00
ITEM: ATOMS id mol type x y z 
6 1 2 -3 0 0 
7 1 2 -2 0 0 
8 1 2 -1 0 0 
9 1 2 0 0 0 
10 1 2 1 0 0 
11 1 2 2 0 0 
12 1 2 3 0 0 
13 1 2 4 0 0 
14 1 2 5 0 0 
ITEM: TIMESTEP
10000
ITEM: NUMBER OF ATOMS
9
ITEM: BOX BOUNDS pp pp pp
-6.8659392210110797e+00 6.8659392210110797e+00
-6.8659392210110797e+00 6.8659392210110797e+00
-6.8659392210110797e+00 6.8659392210110797e+00
ITEM: ATOMS id mol type x y z 
6 1 2 -2.52725 -2.66454e-15 -2.66454e-15 
7 1 2 -1.68123 -2.66454e-15 -2.66454e-15 
8 1 2 -0.842032 -2.66454e-15 -2.66454e-15 
9 1 2 0.00850901 -2.66454e-15 -2.66454e-15 
10 1 2 0.858242 -2.66454e-15 -2.66454e-15 
11 1 2 1.70798 -2.66454e-15 -2.66454e-15 
12 1 2 2.55852 -2.66454e-15 -2.66454e-15 
13 1 2 3.39771 -2.66454e-15 -2.66454e-15 
14 1 2 4.24373 -2.66454e-15 -2.66454e-15 
ITEM: TIMESTEP
20000
ITEM: NUMBER OF ATOMS
9
ITEM: BOX BOUNDS pp pp pp
-6.8519329151976933e+00 6.8519329151976933e+00
-6.8519329151976933e+00 6.8519329151976933e+00
-6.8519329151976933e+00 6.8519329151976933e+00
ITEM: ATOMS id mol type x y z 
6 1 2 -2.59346 -2.66454e-15 -2.66454e-15 
7 1 2 -1.72904 -2.66454e-15 -2.66454e-15 
8 1 2 -0.83129 -2.66454e-15 -2.66454e-15 
9 1 2 0.0119065 -2.66454e-15 -2.66454e-15 
10 1 2 0.856492 -2.66454e-15 -2.66454e-15 
11 1 2 1.70108 -2.66454e-15 -2.66454e-15 
12 1 2 2.54427 -2.66454e-15 -2.66454e-15 
13 1 2 3.44202 -2.66454e-15 -2.66454e-15 
14 1 2 4.30645 -2.66454e-15 -2.66454e-15 
ITEM: TIMESTEP
30000
ITEM: NUMBER OF ATOMS
9
ITEM: BOX BOUNDS pp pp pp
-6.8903467102497880e+00 6.8903467102497880e+00
-6.8903467102497880e+00 6.8903467102497880e+00
-6.8903467102497880e+00 6.8903467102497880e+00
ITEM: ATOMS id mol type x y z 
6 1 2 -2.47776 -2.66454e-15 -2.66454e-15 
7 1 2 -1.64296 -2.66454e-15 -2.66454e-15 
8 1 2 -0.781873 -2.66454e-15 -2.66454e-15 
9 1 2 0.0254835 -2.66454e-15 -2.66454e-15 
10 1 2 0.861293 -2.66454e-15 -2.66454e-15 
11 1 2 1.6971 -2.66454e-15 -2.66454e-15 
12 1 2 2.50446 -2.66454e-15 -2.66454e-15 
13 1 2 3.36555 -2.66454e-15 -2.66454e-15 
14 1 2 4.20035 -2.66454e-15 -2.66454e-15 
ITEM: TIMESTEP
40000
ITEM: NUMBER OF ATOMS
9
ITEM: BOX BOUNDS pp pp pp
-6.8658135809053382e+00 6.8658135809053382e+00
-6.8658135809053382e+00 6.8658135809053382e+00
-6.8658135809053382e+00 6.8658135809053382e+00
ITEM: ATOMS id mol type x y z 
6 1 2 -2.6028 -2.66454e-15 -2.66454e-15 
7 1 2 -1.71749 -2.66454e-15 -2.66454e-15 
8 1 2 -0.852591 -2.66454e-15 -2.66454e-15 
9 1 2 -0.012032 -2.66454e-15 -2.66454e-15 
10 1 2 0.858227 -2.66454e-15 -2.66454e-15 
11 1 2 1.72849 -2.66454e-15 -2.66454e-15 
12 1 2 2.56904 -2.66454e-15 -2.66454e-15 
13 1 2 3.43394 -2.66454e-15 -2.66454e-15 
14 1 2 4.31925 -2.66454e-15 -2.66454e-15 
ITEM: TIMESTEP
50000
ITEM: NUMBER OF ATOMS
9
ITEM: BOX BOUNDS pp pp pp
-6.8801378325836966e+00 6.8801378325836966e+00
-6.8801378325836966e+00 6.8801378325836966e+00
-6.8801378325836966e+00 6.8801378325836966e+00
ITEM: ATOMS id mol type x y z 
6 1 2 -2.51953 -2.66454e-15 -2.66454e-15 
7 1 2 -1.67317 -2.66454e-15 -2.66454e-15 
8 1 2 -0.82637 -2.66454e-15 -2.66454e-15 
9 1 2 0.0485697 -2.66454e-15 -2.66454e-15 
10 1 2 0.860017 -2.66454e-15 -2.66454e-15 
11 1 2 1.67146 -2.66454e-15 -2.66454e-15 
12 1 2 2.5464 -2.66454e-15 -2.66454e-15 
13 1 2 3.3932 -2.66454e-15 -2.66454e-15 
14 1 2 4.23956 -2.66454e-15 -2.66454e-15 
ITEM: TIMESTEP
60000
ITEM: NUMBER OF ATOMS
9
ITEM: BOX BOUNDS pp pp pp
-6.8609825530678901e+00 6.8609825530678901e+00
-6.8609825530678901e+00 6.8609825530678901e+00
-6.8609825530678901e+00 6.8609825530678901e+00
ITEM: ATOMS id mol type x y z 
6 1 2 -2.6127 -2.66454e-15 -2.66454e-15 
7 1 2 -1.76252 -2.66454e-15 -2.66454e-15 
8 1 2 -0.908125 -2.66454e-15 -2.66454e-15 
9 1 2 -0.0118222 -2.66454e-15 -2.66454e-15 
10 1 2 0.857623 -2.66454e-15 -2.66454e-15 
11 1 2 1.72707 -2.66454e-15 -2.66454e-15 
12 1 2 2.62337 -2.66454e-15 -2.66454e-15 
13 1 2 3.47777 -2.66454e-15 -2.66454e-15 
14 1 2 4.32795 -2.66454e-15 -2.66454e-15 
ITEM: TIMESTEP
70000
ITEM: NUMBER OF ATOMS
9
ITEM: BOX BOUNDS pp pp pp
-6.8702579198678801e+00 6.8702579198678801e+00
-6.8702579198678801e+00 6.8702579198678801e+00
-6.8702579198678801e+00 6.8702579198678801e+00
ITEM: ATOMS id mol type x y z 
6 1 2 -2.5828 -2.66454e-15 -2.66454e-15 
7 1 2 -1.6846 -2.66454e-15 -2.66454e-15 
8 1 2 -0.83553 -2.66454e-15 -2.66454e-15 
9 1 2 0.0212541 -2.66454e-15 -2.66454e-15 
10 1 2 0.858782 -2.66454e-15 -2.66454e-15 
11 1 2 1.69631 -2.66454e-15 -2.66454e-15 
12 1 2 2.55309 -2.66454e-15 -2.66454e-15 
13 1 2 3.40216 -2.66454e-15 -2.66454e-15 
14 1 2 4.30037 -2.66454e-15 -2.66454e-15 
ITEM: TIMESTEP
80000
ITEM: NUMBER OF ATOMS
9
ITEM: BOX BOUNDS pp pp pp
-6.8232714020080669e+00 6.8232714020080669e+00
-6.8232714020080669e+00 6.8232714020080669e+00
-6.8232714020080669e+00 6.8232714020080669e+00
ITEM: ATOMS id mol type x y z 
6 1 2 -2.58433 -2.66454e-15 -2.66454e-15 
7 1 2 -1.7466 -2.66454e-15 -2.66454e-15 
8 1 2 -0.887332 -2.66454e-15 -2.66454e-15 
9 1 2 -0.0255294 -2.66454e-15 -2.66454e-15 
10 1 2 0.852909 -2.66454e-15 -2.66454e-15 
11 1 2 1.73135 -2.66454e-15 -2.66454e-15 
12 1 2 2.59315 -2.66454e-15 -2.66454e-15 
13 1 2 3.45242 -2.66454e-15 -2.66454e-15 
14 1 2 4.29015 -2.66454e-15 -2.66454e-15 
ITEM: TIMESTEP
90000
ITEM: NUMBER OF ATOMS
9
ITEM: BOX BOUNDS pp pp pp
-6.8400912346196643e+00 6.8400912346196643e+00
-6.8400912346196643e+00 6.8400912346196643e+00
-6.8400912346196643e+00 6.8400912346196643e+00
ITEM: ATOMS id mol type x y z 
6 1 2 -2.55383 -2.66454e-15 -2.66454e-15 
7 1 2 -1.70942 -2.66454e-15 -2.66454e-15 
8 1 2 -0.883622 -2.66454e-15 -2.66454e-15 
9 1 2 -0.019511 -2.66454e-15 -2.66454e-15 
10 1 2 0.855011 -2.66454e-15 -2.66454e-15 
11 1 2 1.72953 -2.66454e-15 -2.66454e-15 
12 1 2 2.59364 -2.66454e-15 -2.66454e-15 
13 1 2 3.41945 -2.66454e-15 -2.66454e-15 
14 1 2 4.26385 -2.66454e-15 -2.66454e-15 
ITEM: TIMESTEP
100000
ITEM: NUMBER OF ATOMS
9
ITEM: BOX BOUNDS pp pp pp
-6.8459343432225968e+00 6.8459343432225968e+00
-6.8459343432225968e+00 6.8459343432225968e+00
-6.8459343432225968e+00 6.8459343432225968e+00
ITEM: ATOMS id mol type x y z 
6 1 2 -2.57529 -2.66454e-15 -2.66454e-15 
7 1 2 -1.70568 -2.66454e-15 -2.66454e-15 
8 1 2 -0.880705 -2.66454e-15 -2.66454e-15 
9 1 2 -0.000878019 -2.66454e-15 -2.66454e-15 
10 1 2 0.855742 -2.66454e-15 -2.66454e-15 
11 1 2 1.71236 -2.66454e-15 -2.66454e-15 
12 1 2 2.59219 -2.66454e-15 -2.66454e-15 
13 1 2 3.41716 -2.66454e-15 -2.66454e-15 
14 1 2 4.28677 -2.66454e-15 -2.66454e-15 
ITEM: TIMESTEP
110000
ITEM: NUMBER OF ATOMS
9
ITEM: BOX BOUNDS pp pp pp
-6.8450710485109738e+00 6.8450710485109738e+00
-6.8450710485109738e+00 6.8450710485109738e+00
-6.8450710485109738e+00 6.8450710485109738e+00
ITEM: ATOMS id mol type x y z 
6 1 2 -2.55602 -2.66454e-15 -2.66454e-15 
7 1 2 -1.715 -2.66454e-15 -2.66454e-15 
8 1 2 -0.897668 -2.66454e-15 -2.66454e-15 
9 1 2 -0.00364302 -2.66454e-15 -2.66454e-15 
10 1 2 0.855634 -2.66454e-15 -2.66454e-15 
11 1 2 1.71491 -2.66454e-15 -2.66454e-15 
12 1 2 2.60894 -2.66454e-15 -2.66454e-15 
13 1 2 3.42627 -2.66454e-15 -2.66454e-15 
14 1 2 4.26729 -2.66454e-15 -2.66454e-15 
ITEM: TIMESTEP
120000
ITEM: NUMBER OF ATOMS
9
ITEM: BOX BOUNDS pp pp pp
-6.8726587699945032e+00 6.8726587699945032e+00
-6.8726587699945032e+00 6.8726587699945032e+00
-6.8726587699945032e+00 6.8726587699945032e+00
ITEM: ATOMS id mol type x y z 
6 1 2 -2.52586 -2.66454e-15 -2.66454e-15 
7 1 2 -1.67737 -2.66454e-15 -2.66454e-15 
8 1 2 -0.838909 -2.66454e-15 -2.66454e-15 
9 1 2 0.0181555 -2.66454e-15 -2.66454e-15 
10 1 2 0.859082 -2.66454e-15 -2.66454e-15 
11 1 2 1.70001 -2.66454e-15 -2.66454e-15 
12 1 2 2.55707 -2.66454e-15 -2.66454e-15 
13 1 2 3.39553 -2.66454e-15 -2.66454e-15 
14 1 2 4.24402 -2.66454e-15 -2.66454e-15 
ITEM: TIMESTEP
130000
ITEM: NUMBER OF ATOMS
9
ITEM: BOX BOUNDS pp pp pp
-6.8652324434587655e+00 6.8652324434587655e+00
-6.8652324434587655e+00 6.8652324434587655e+00
-6.8652324434587655e+00 6.8652324434587655e+00
ITEM: ATOMS id mol type x y z 
6 1 2 -2.58576 -2.66454e-15 -2.66454e-15 
7 1 2 -1.69598 -2.66454e-15 -2.66454e-15 
8 1 2 -0.826215 -2.66454e-15 -2.66454e-15 
9 1 2 0.0033658 -2.66454e-15 -2.66454e-15 
10 1 2 0.858154 -2.66454e-15 -2.66454e-15 
11 1 2 1.71294 -2.66454e-15 -2.66454e-15 
12 1 2 2.54252 -2.66454e-15 -2.66454e-15 
13 1 2 3.41229 -2.66454e-15 -2.66454e-15 
14 1 2 4.30207 -2.66454e-15 -2.66454e-15 
ITEM: TIMESTEP
140000
ITEM: NUMBER OF ATOMS
9
ITEM: BOX BOUNDS pp pp pp
-6.8756561930507081e+00 6.8756561930507081e+00
-6.8756561930507081e+00 6.8756561930507081e+00
-6.8756561930507081e+00 6.8756561930507081e+00
ITEM: ATOMS id mol type x y z 
6 1 2 -2.5008 -2.66454e-15 -2.66454e-15 
7 1 2 -1.64902 -2.66454e-15 -2.66454e-15 
8 1 2 -0.830504 -2.66454e-15 -2.66454e-15 
9 1 2 0.0279515 -2.66454e-15 -2.66454e-15 
10 1 2 0.859457 -2.66454e-15 -2.66454e-15 
11 1 2 1.69096 -2.66454e-15 -2.66454e-15 
12 1 2 2.54942 -2.66454e-15 -2.66454e-15 
13 1 2 3.36794 -2.66454e-15 -2.66454e-15 
14 1 2 4.21971 -2.66454e-15 -2.66454e-15 
ITEM: TIMESTEP
150000
ITEM: NUMBER OF ATOMS
9
ITEM: BOX BOUNDS pp pp pp
-6.8928112066329392e+00 6.8928112066329392e+00
-6.8928112066329392e+00 6.8928112066329392e+00
-6.8928112066329392e+00 6.8928112066329392e+00
ITEM: ATOMS id mol type x y z 
6 1 2 -2.61139 -2.66454e-15 -2.66454e-15 
7 1 2 -1.70096 -2.66454e-15 -2.66454e-15 
8 1 2 -0.857977 -2.66454e-15 -2.66454e-15 
9 1 2 0.013498 -2.66454e-15 -2.66454e-15 
10 1 2 0.861601 -2.66454e-15 -2.66454e-15 
11 1 2 1.7097 -2.66454e-15 -2.66454e-15 
12 1 2 2.58118 -2.66454e-15 -2.66454e-15 
13 1 2 3.42417 -2.66454e-15 -2.66454e-15 
14 1 2 4.33459 -2.66454e-15 -2.66454e-15 
ITEM: TIMESTEP
160000
ITEM: NUMBER OF ATOMS
9
ITEM: BOX BOUNDS pp pp pp
-6.9247271115267646e+00 6.9247271115267646e+00
-6.9247271115267646e+00 6.9247271115267646e+00
-6.9247271115267646e+00 6.9247271115267646e+00
ITEM: ATOMS id mol type x y z 
6 1 2 -2.52159 -2.66454e-15 -2.66454e-15 
7 1 2 -1.65621 -2.66454e-15 -2.66454e-15 
8 1 2 -0.81794 -2.66454e-15 -2.66454e-15 
9 1 2 0.0281131 -2.66454e-15 -2.66454e-15 
10 1 2 0.865591 -2.66454e-15 -2.66454e-15 
11 1 2 1.70307 -2.66454e-15 -2.66454e-15 
12 1 2 2.54912 -2.66454e-15 -2.66454e-15 
13 1 2 3.38739 -2.66454e-15 -2.66454e-15 
14 1 2 4.25277 -2.66454e-15 -2.66454e-15 
ITEM: TIMESTEP
170000
ITEM: NUMBER OF ATOMS
9
ITEM: BOX BOUNDS pp pp pp
-6.8699015727326431e+00 6.8699015727326431e+00
-6.8699015727326431e+00 6.8699015727326431e+00
-6.8699015727326431e+00 6.8699015727326431e+00
ITEM: ATOMS id mol type x y z 
6 1 2 -2.62528 -2.66454e-15 -2.66454e-15 
7 1 2 -1.73572 -2.66454e-15 -2.66454e-15 
8 1 2 -0.852169 -2.66454e-15 -2.66454e-15 
9 1 2 0.00501846 -2.66454e-15 -2.66454e-15 
10 1 2 0.858738 -2.66454e-15 -2.66454e-15 
11 1 2 1.71246 -2.66454e-15 -2.66454e-15 
12 1 2 2.56964 -2.66454e-15 -2.66454e-15 
13 1 2 3.4532 -2.66454e-15 -2.66454e-15 
14 1 2 4.34276 -2.66454e-15 -2.66454e-15 
ITEM: TIMESTEP
180000
ITEM: NUMBER OF ATOMS
9
ITEM: BOX BOUNDS pp pp pp
-6.8927046408809813e+00 6.8927046408809813e+00
-6.8927046408809813e+00 6.8927046408809813e+00
-6.8927046408809813e+00 6.8927046408809813e+00
ITEM: ATOMS id mol type x y z 
6 1 2 -2.5322 -2.66454e-15 -2.66454e-15 
7 1 2 -1.6513 -2.66454e-15 -2.66454e-15 
8 1 2 -0.787229 -2.66454e-15 -2.66454e-15 
9 1 2 0.0277626 -2.66454e-15 -2.66454e-15 
10 1 2 0.861588 -2.66454e-15 -2.66454e-15 
11 1 2 1.69541 -2.66454e-15 -2.66454e-15 
12 1 2 2.51041 -2.66454e-15 -2.66454e-15 
13 1 2 3.37448 -2.66454e-15 -2.66454e-15 
14 1 2 4.25537 -2.66454e-15 -2.66454e-15 
ITEM: TIMESTEP
190000
ITEM: NUMBER OF ATOMS
9
ITEM: BOX BOUNDS pp pp pp
-6.8505765438239399e+00 6.8505765438239399e+00
-6.8505765438239399e+00 6.8505765438239399e+00
-6.8505765438239399e+00 6.8505765438239399e+00
ITEM: ATOMS id mol type x y z 
6 1 2 -2.61348 -2.66454e-15 -2.66454e-15 
7 1 2 -1.78309 -2.66454e-15 -2.66454e-15 
8 1 2 -0.909424 -2.66454e-15 -2.66454e-15 
9 1 2 -0.0286015 -2.66454e-15 -2.66454e-15 
10 1 2 0.856322 -2.66454e-15 -2.66454e-15 
11 1 2 1.74125 -2.66454e-15 -2.66454e-15 
12 1 2 2.62207 -2.66454e-15 -2.66454e-15 
13 1 2 3.49573 -2.66454e-15 -2.66454e-15 
14 1 2 4.32612 -2.66454e-15 -2.66454e-15 
ITEM: TIMESTEP
200000
ITEM: NUMBER OF ATOMS
9
ITEM: BOX BOUNDS pp pp pp
-6.8599343377204089e+00 6.8599343377204089e+00
-6.8599343377204089e+00 6.8599343377204089e+00
-6.8599343377204089e+00 6.8599343377204089e+00
ITEM: ATOMS id mol type x y z 
6 1 2 -2.53615 -2.66454e-15 -2.66454e-15 
7 1 2 -1.6771 -2.66454e-15 -2.66454e-15 
8 1 2 -0.822391 -2.66454e-15 -2.66454e-15 
9 1 2 0.0402032 -2.66454e-15 -2.66454e-15 
10 1 2 0.857492 -2.66454e-15 -2.66454e-15 
11 1 2 1.67478 -2.66454e-15 -2.66454e-15 
12 1 2 2.53737 -2.66454e-15 -2.66454e-15 
13 1 2 3.39208 -2.66454e-15 -2.66454e-15 
14 1 2 4.25113 -2.66454e-15 -2.66454e-15 
ITEM: TIMESTEP
210000
ITEM: NUMBER OF ATOMS
9
ITEM: BOX BOUNDS pp pp pp
-6.8507650658179733e+00 6.8507650658179733e+00
-6.8507650658179733e+00 6.8507650658179733e+00
-6.8507650658179733e+00 6.8507650658179733e+00
ITEM: ATOMS id mol type x y z 
6 1 2 -2.52939 -2.66454e-15 -2.66454e-15 
7 1 2 -1.67615 -2.66454e-15 -2.66454e-15 
8 1 2 -0.831148 -2.66454e-15 -2.66454e-15 
9 1 2 0.00420749 -2.66454e-15 -2.66454e-15 
10 1 2 0.856346 -2.66454e-15 -2.66454e-15 
11 1 2 1.70848 -2.66454e-15 -2.66454e-15 
12 1 2 2.54384 -2.66454e-15 -2.66454e-15 
13 1 2 3.38884 -2.66454e-15 -2.66454e-15 
14 1 2 4.24208 -2.66454e-15 -2.66454e-15 
ITEM: TIMESTEP
220000
ITEM: NUMBER OF ATOMS
9
ITEM: BOX BOUNDS pp pp pp
-6.8327474680594351e+00 6.8327474680594351e+00
-6.8327474680594351e+00 6.8327474680594351e+00
-6.8327474680594351e+00 6.8327474680594351e+00
ITEM: ATOMS id mol type x y z 
6 1 2 -2.49244 -2.66454e-15 -2.66454e-15 
7 1 2 -1.67718 -2.66454e-15 -2.66454e-15 
8 1 2 -0.837354 -2.66454e-15 -2.66454e-15 
9 1 2 0.0102256 -2.66454e-15 -2.66454e-15 
10 1 2 0.854093 -2.66454e-15 -2.66454e-15 
11 1 2 1.69796 -2.66454e-15 -2.66454e-15 
12 1 2 2.54554 -2.66454e-15 -2.66454e-15 
13 1 2 3.38537 -2.66454e-15 -2.66454e-15 
14 1 2 4.20063 -2.66454e-15 -2.66454e-15 
ITEM: TIMESTEP
230000
ITEM: NUMBER OF ATOMS
9
ITEM: BOX BOUNDS pp pp pp
-6.8151141089911711e+00 6.8151141089911711e+00
-6.8151141089911711e+00 6.8151141089911711e+00
-6.8151141089911711e+00 6.8151141089911711e+00
ITEM: ATOMS id mol type x y z 
6 1 2 -2.56432 -2.66454e-15 -2.66454e-15 
7 1 2 -1.71103 -2.66454e-15 -2.66454e-15 
8 1 2 -0.874355 -2.66454e-15 -2.66454e-15 
9 1 2 -0.0467293 -2.66454e-15 -2.66454e-15 
10 1 2 0.851889 -2.66454e-15 -2.66454e-15 
11 1 2 1.75051 -2.66454e-15 -2.66454e-15 
12 1 2 2.57813 -2.66454e-15 -2.66454e-15 
13 1 2 3.41481 -2.66454e-15 -2.66454e-15 
14 1 2 4.2681 -2.66454e-15 -2.66454e-15 
ITEM: TIMESTEP
240000
ITEM: NUMBER OF ATOMS
9
ITEM: BOX BOUNDS pp pp pp
-6.8377980124763438e+00 6.8377980124763438e+00
-6.8377980124763438e+00 6.8377980124763438e+00
-6.8377980124763438e+00 6.8377980124763438e+00
ITEM: ATOMS id mol type x y z 
6 1 2 -2.57027 -2.66454e-15 -2.66454e-15 
7 1 2 -1.76144 -2.66454e-15 -2.66454e-15 
8 1 2 -0.912529 -2.66454e-15 -2.66454e-15 
9 1 2 -0.0568208 -2.66454e-15 -2.66454e-15 
10 1 2 0.854725 -2.66454e-15 -2.66454e-15 
11 1 2 1.76627 -2.66454e-15 -2.66454e-15 
12 1 2 2.62198 -2.66454e-15 -2.66454e-15 
13 1 2 3.47089 -2.66454e-15 -2.66454e-15 
14 1 2 4.27972 -2.66454e-15 -2.66454e-15 
ITEM: TIMESTEP
250000
ITEM: NUMBER OF ATOMS
9
ITEM: BOX BOUNDS pp pp pp
-6.8625699169873853e+00 6.8625699169873853e+00
-6.8625699169873853e+00 6.8625699169873853e+00
-6.8625699169873853e+00 6.8625699169873853e+00
ITEM: ATOMS id mol type x y z 
6 1 2 -2.55849 -2.66454e-15 -2.66454e-15 
7 1 2 -1.71978 -2.66454e-15 -2.66454e-15 
8 1 2 -0.868661 -2.66454e-15 -2.66454e-15 
9 1 2 -0.0133248 -2.66454e-15 -2.66454e-15 
10 1 2 0.857821 -2.66454e-15 -2.66454e-15 
11 1 2 1.72897 -2.66454e-15 -2.66454e-15 
12 1 2 2.5843 -2.66454e-15 -2.66454e-15 
13 1 2 3.43543 -2.66454e-15 -2.66454e-15 
14 1 2 4.27413 -2.66454e-15 -2.66454e-15 
ITEM: TIMESTEP
260000
ITEM: NUMBER OF ATOMS
9
ITEM: BOX BOUNDS pp pp pp
-6.8662735880748960e+00 6.8662735880748960e+00
-6.8662735880748960e+00 6.8662735880748960e+00
-6.8662735880748960e+00 6.8662735880748960e+00
ITEM: ATOMS id mol type x y z 
6 1 2 -2.56364 -2.66454e-15 -2.66454e-15 
7 1 2 -1.72301 -2.66454e-15 -2.66454e-15 
8 1 2 -0.876568 -2.66454e-15 -2.66454e-15 
9 1 2 -0.014947 -2.66454e-15 -2.66454e-15 
10 1 2 0.858284 -2.66454e-15 -2.66454e-15 
11 1 2 1.73152 -2.66454e-15 -2.66454e-15 
12 1 2 2.59314 -2.66454e-15 -2.66454e-15 
13 1 2 3.43957 -2.66454e-15 -2.66454e-15 
14 1 2 4.28021 -2.66454e-15 -2.66454e-15 
ITEM: TIMESTEP
270000
ITEM: NUMBER OF ATOMS
9
ITEM: BOX BOUNDS pp pp pp
-6.8897016675687333e+00 6.8897016675687333e+00
-6.8897016675687333e+00 6.8897016675687333e+00
-6.8897016675687333e+00 6.8897016675687333e+00
ITEM: ATOMS id mol type x y z 
6 1 2 -2.53581 -2.66454e-15 -2.66454e-15 
7 1 2 -1.70411 -2.66454e-15 -2.66454e-15 
8 1 2 -0.868112 -2.66454e-15 -2.66454e-15 
9 1 2 0.00152399 -2.66454e-15 -2.66454e-15 
10 1 2 0.861213 -2.66454e-15 -2.66454e-15 
11 1 2 1.7209 -2.66454e-15 -2.66454e-15 
12 1 2 2.59054 -2.66454e-15 -2.66454e-15 
13 1 2 3.42654 -2.66454e-15 -2.66454e-15 
14 1 2 4.25823 -2.66454e-15 -2.66454e-15 
ITEM: TIMESTEP
280000
ITEM: NUMBER OF ATOMS
9
ITEM: BOX BOUNDS pp pp pp
-6.8808108402466033e+00 6.8808108402466033e+00
-6.8808108402466033e+00 6.8808108402466033e+00
-6.8808108402466033e+00 6.8808108402466033e+00
ITEM: ATOMS id mol type x y z 
6 1 2 -2.59247 -2.66454e-15 -2.66454e-15 
7 1 2 -1.73658 -2.66454e-15 -2.66454e-15 
8 1 2 -0.857987 -2.66454e-15 -2.66454e-15 
9 1 2 0.0378394 -2.66454e-15 -2.66454e-15 
10 1 2 0.860101 -2.66454e-15 -2.66454e-15 
11 1 2 1.68236 -2.66454e-15 -2.66454e-15 
12 1 2 2.57819 -2.66454e-15 -2.66454e-15 
13 1 2 3.45679 -2.66454e-15 -2.66454e-15 
14 1 2 4.31267 -2.66454e-15 -2.66454e-15 
ITEM: TIMESTEP
290000
ITEM: NUMBER OF ATOMS
9
ITEM: BOX BOUNDS pp pp pp
-6.9191692760080494e+00 6.9191692760080494e+00
-6.9191692760080494e+00 6.9191692760080494e+00
-6.9191692760080494e+00 6.9191692760080494e+00
ITEM: ATOMS id mol type x y z 
6 1 2 -2.51699 -2.66454e-15 -2.66454e-15 
7 1 2 -1.65606 -2.66454e-15 -2.66454e-15 
8 1 2 -0.813107 -2.66454e-15 -2.66454e-15 
9 1 2 0.0236692 -2.66454e-15 -2.66454e-15 
10 1 2 0.864896 -2.66454e-15 -2.66454e-15 
11 1 2 1.70612 -2.66454e-15 -2.66454e-15 
12 1 2 2.5429 -2.66454e-15 -2.66454e-15 
13 1 2 3.38585 -2.66454e-15 -2.66454e-15 
14 1 2 4.24679 -2.66454e-15 -2.66454e-15 
ITEM: TIMESTEP
300000
ITEM: NUMBER OF ATOMS
9
ITEM: BOX BOUNDS pp pp pp
-6.9352378607643796e+00 6.9352378607643796e+00
-6.9352378607643796e+00 6.9352378607643796e+00
-6.9352378607643796e+00 6.9352378607643796e+00
ITEM: ATOMS id mol type x y z 
6 1 2 -2.6103 -2.66454e-15 -2.66454e-15 
7 1 2 -1.72947 -2.66454e-15 -2.66454e-15 
8 1 2 -0.855418 -2.66454e-15 -2.66454e-15 
9 1 2 0.00599272 -2.66454e-15 -2.66454e-15 
10 1 2 0.866905 -2.66454e-15 -2.66454e-15 
11 1 2 1.72782 -2.66454e-15 -2.66454e-15 
12 1 2 2.58923 -2.66454e-15 -2.66454e-15 
13 1 2 3.46328 -2.66454e-15 -2.66454e-15 
14 1 2 4.34411 -2.66454e-15 -2.66454e-15 
ITEM: TIMESTEP
310000
ITEM: NUMBER OF ATOMS
9
ITEM: BOX BOUNDS pp pp pp
-6.9001392262023273e+00 6.9001392262023273e+00
-6.9001392262023273e+00 6.9001392262023273e+00
-6.9001392262023273e+00 6.9001392262023273e+00
ITEM: ATOMS id mol type x y z 
6 1 2 -2.49094 -2.66454e-15 -2.66454e-15 
7 1 2 -1.6392 -2.66454e-15 -2.66454e-15 
8 1 2 -0.802926 -2.66454e-15 -2.66454e-15 
9 1 2 0.0390777 -2.66454e-15 -2.66454e-15 
10 1 2 0.862517 -2.66454e-15 -2.66454e-15 
11 1 2 1.68596 -2.66454e-15 -2.66454e-15 
12 1 2 2.52796 -2.66454e-15 -2.66454e-15 
13 1 2 3.36424 -2.66454e-15 -2.66454e-15 
14 1 2 4.21598 -2.66454e-15 -2.66454e-15 
ITEM: TIMESTEP
320000
ITEM: NUMBER OF ATOMS
9
ITEM: BOX BOUNDS pp pp pp
-6.8498924514418951e+00 6.8498924514418951e+00
-6.8498924514418951e+00 6.8498924514418951e+00
-6.8498924514418951e+00 6.8498924514418951e+00
ITEM: ATOMS id mol type x y z 
6 1 2 -2.63123 -2.66454e-15 -2.66454e-15 
7 1 2 -1.73178 -2.66454e-15 -2.66454e-15 
8 1 2 -0.874776 -2.66454e-15 -2.66454e-15 
9 1 2 -0.0211393 -2.66454e-15 -2.66454e-15 
10 1 2 0.856237 -2.66454e-15 -2.66454e-15 
11 1 2 1.73361 -2.66454e-15 -2.66454e-15 
12 1 2 2.58725 -2.66454e-15 -2.66454e-15 
13 1 2 3.44425 -2.66454e-15 -2.66454e-15 
14 1 2 4.3437 -2.66454e-15 -2.66454e-15 
ITEM: TIMESTEP
330000
ITEM: NUMBER OF ATOMS
9
ITEM: BOX BOUNDS pp pp pp
-6.8722328247757209e+00 6.8722328247757209e+00
-6.8722328247757209e+00 6.8722328247757209e+00
-6.8722328247757209e+00 6.8722328247757209e+00
ITEM: ATOMS id mol type x y z 
6 1 2 -2.57846 -2.66454e-15 -2.66454e-15 
7 1 2 -1.67524 -2.66454e-15 -2.66454e-15 
8 1 2 -0.790019 -2.66454e-15 -2.66454e-15 
9 1 2 0.0347237 -2.66454e-15 -2.66454e-15 
10 1 2 0.859029 -2.66454e-15 -2.66454e-15 
11 1 2 1.68333 -2.66454e-15 -2.66454e-15 
12 1 2 2.50808 -2.66454e-15 -2.66454e-15 
13 1 2 3.39329 -2.66454e-15 -2.66454e-15 
14 1 2 4.29651 -2.66454e-15 -2.66454e-15 
ITEM: TIMESTEP
340000
ITEM: NUMBER OF ATOMS
9
ITEM: BOX BOUNDS pp pp pp
-6.8362217839782087e+00 6.8362217839782087e+00
-6.8362217839782087e+00 6.8362217839782087e+00
-6.8362217839782087e+00 6.8362217839782087e+00
ITEM: ATOMS id mol type x y z 
6 1 2 -2.5917 -2.66454e-15 -2.66454e-15 
7 1 2 -1.7761 -2.66454e-15 -2.66454e-15 
8 1 2 -0.90017 -2.66454e-15 -2.66454e-15 
9 1 2 -0.0253232 -2.66454e-15 -2.66454e-15 
10 1 2 0.854528 -2.66454e-15 -2.66454e-15 
11 1 2 1.73438 -2.66454e-15 -2.66454e-15 
12 1 2 2.60923 -2.66454e-15 -2.66454e-15 
13 1 2 3.48516 -2.66454e-15 -2.66454e-15 
14 1 2 4.30075 -2.66454e-15 -2.66454e-15 
ITEM: TIMESTEP
350000
ITEM: NUMBER OF ATOMS
9
ITEM: BOX BOUNDS pp pp pp
-6.8732250018725694e+00 6.8732250018725694e+00
-6.8732250018725694e+00 6.8732250018725694e+00
-6.8732250018725694e+00 6.8732250018725694e+00
ITEM: ATOMS id mol type x y z 
6 1 2 -2.55183 -2.66454e-15 -2.66454e-15 
7 1 2 -1.69744 -2.66454e-15 -2.66454e-15 
8 1 2 -0.822087 -2.66454e-15 -2.66454e-15 
9 1 2 0.0134122 -2.66454e-15 -2.66454e-15 
10 1 2 0.859153 -2.66454e-15 -2.66454e-15 
11 1 2 1.70489 -2.66454e-15 -2.66454e-15 
12 1 2 2.54039 -2.66454e-15 -2.66454e-15 
13 1 2 3.41575 -2.66454e-15 -2.66454e-15 
14 1 2 4.27013 -2.66454e-15 -2.66454e-15 
ITEM: TIMESTEP
360000
ITEM: NUMBER OF ATOMS
9
ITEM: BOX BOUNDS pp pp pp
-6.8821575058985038e+00 6.8821575058985038e+00
-6.8821575058985038e+00 6.8821575058985038e+00
-6.8821575058985038e+00 6.8821575058985038e+00
ITEM: ATOMS id mol type x y z 
6 1 2 -2.56061 -2.66454e-15 -2.66454e-15 
7 1 2 -1.68089 -2.66454e-15 -2.66454e-15 
8 1 2 -0.846111 -2.66454e-15 -2.66454e-15 
9 1 2 -0.0202325 -2.66454e-15 -2.66454e-15 
10 1 2 0.86027 -2.66454e-15 -2.66454e-15 
11 1 2 1.74077 -2.66454e-15 -2.66454e-15 
12 1 2 2.56665 -2.66454e-15 -2.66454e-15 
13 1 2 3.40143 -2.66454e-15 -2.66454e-15 
14 1 2 4.28115 -2.66454e-15 -2.66454e-15 
ITEM: TIMESTEP
370000
ITEM: NUMBER OF ATOMS
9
ITEM: BOX BOUNDS pp pp pp
-6.8845618084226707e+00 6.8845618084226707e+00
-6.8845618084226707e+00 6.8845618084226707e+00
-6.8845618084226707e+00 6.8845618084226707e+00
ITEM: ATOMS id mol type x y z 
6 1 2 -2.51247 -2.66454e-15 -2.66454e-15 
7 1 2 -1.67457 -2.66454e-15 -2.66454e-15 
8 1 2 -0.84664 -2.66454e-15 -2.66454e-15 
9 1 2 0.0028886 -2.66454e-15 -2.66454e-15 
10 1 2 0.86057 -2.66454e-15 -2.66454e-15 
11 1 2 1.71825 -2.66454e-15 -2.66454e-15 
12 1 2 2.56778 -2.66454e-15 -2.66454e-15 
13 1 2 3.39571 -2.66454e-15 -2.66454e-15 
14 1 2 4.23361 -2.66454e-15 -2.66454e-15 
ITEM: TIMESTEP
380000
ITEM: NUMBER OF ATOMS
9
ITEM: BOX BOUNDS pp pp pp
-6.8809162405207589e+00 6.8809162405207589e+00
-6.8809162405207589e+00 6.8809162405207589e+00
-6.8809162405207589e+00 6.8809162405207589e+00
ITEM: ATOMS id mol type x y z 
6 1 2 -2.57908 -2.66454e-15 -2.66454e-15 
7 1 2 -1.68384 -2.66454e-15 -2.66454e-15 
8 1 2 -0.8247 -2.66454e-15 -2.66454e-15 
9 1 2 0.011833 -2.66454e-15 -2.66454e-15 
10 1 2 0.860115 -2.66454e-15 -2.66454e-15 
11 1 2 1.7084 -2.66454e-15 -2.66454e-15 
12 1 2 2.54493 -2.66454e-15 -2.66454e-15 
13 1 2 3.40407 -2.66454e-15 -2.66454e-15 
14 1 2 4.29931 -2.66454e-15 -2.66454e-15 
ITEM: TIMESTEP
390000
ITEM: NUMBER OF ATOMS
9
ITEM: BOX BOUNDS pp pp pp
-6.8755151645821302e+00 6.8755151645821302e+00
-6.8755151645821302e+00 6.8755151645821302e+00
-6.8755151645821302e+00 6.8755151645821302e+00
ITEM: ATOMS id mol type x y z 
6 1 2 -2.60396 -2.66454e-15 -2.66454e-15 
7 1 2 -1.75413 -2.66454e-15 -2.66454e-15 
8 1 2 -0.907145 -2.66454e-15 -2.66454e-15 
9 1 2 -0.0425749 -2.66454e-15 -2.66454e-15 
10 1 2 0.859439 -2.66454e-15 -2.66454e-15 
11 1 2 1.76145 -2.66454e-15 -2.66454e-15 
12 1 2 2.62602 -2.66454e-15 -2.66454e-15 
13 1 2 3.47301 -2.66454e-15 -2.66454e-15 
14 1 2 4.32284 -2.66454e-15 -2.66454e-15 
ITEM: TIMESTEP
400000
ITEM: NUMBER OF ATOMS
9
ITEM: BOX BOUNDS pp pp pp
-6.8735762148223349e+00 6.8735762148223349e+00
-6.8735762148223349e+00 6.8735762148223349e+00
-6.8735762148223349e+00 6.8735762148223349e+00
ITEM: ATOMS id mol type x y z 
6 1 2 -2.54798 -2.66454e-15 -2.66454e-15 
7 1 2 -1.70245 -2.66454e-15 -2.66454e-15 
8 1 2 -0.836692 -2.66454e-15 -2.66454e-15 
9 1 2 0.0280776 -2.66454e-15 -2.66454e-15 
10 1 2 0.859197 -2.66454e-15 -2.66454e-15 
11 1 2 1.69032 -2.66454e-15 -2.66454e-15 
12 1 2 2.55509 -2.66454e-15 -2.66454e-15 
13 1 2 3.42085 -2.66454e-15 -2.66454e-15 
14 1 2 4.26637 -2.66454e-15 -2.66454e-15 
ITEM: TIMESTEP
410000
ITEM: NUMBER OF ATOMS
9
ITEM: BOX BOUNDS pp pp pp
-6.8625160264335507e+00 6.8625160264335507e+00
-6.8625160264335507e+00 6.8625160264335507e+00
-6.8625160264335507e+00 6.8625160264335507e+00
ITEM: ATOMS id mol type x y z 
6 1 2 -2.61909 -2.66454e-15 -2.66454e-15 
7 1 2 -1.74928 -2.66454e-15 -2.66454e-15 
8 1 2 -0.873742 -2.66454e-15 -2.66454e-15 
9 1 2 0.00433259 -2.66454e-15 -2.66454e-15 
10 1 2 0.857815 -2.66454e-15 -2.66454e-15 
11 1 2 1.7113 -2.66454e-15 -2.66454e-15 
12 1 2 2.58937 -2.66454e-15 -2.66454e-15 
13 1 2 3.46491 -2.66454e-15 -2.66454e-15 
14 1 2 4.33472 -2.66454e-15 -2.66454e-15 
ITEM: TIMESTEP
420000
ITEM: NUMBER OF ATOMS
9
ITEM: BOX BOUNDS pp pp pp
-6.9000912517197071e+00 6.9000912517197071e+00
-6.9000912517197071e+00 6.9000912517197071e+00
-6.9000912517197071e+00 6.9000912517197071e+00
ITEM: ATOMS id mol type x y z 
6 1 2 -2.52034 -2.66454e-15 -2.66454e-15 
7 1 2 -1.65062 -2.66454e-15 -2.66454e-15 
8 1 2 -0.814128 -2.66454e-15 -2.66454e-15 
9 1 2 0.00501651 -2.66454e-15 -2.66454e-15 
10 1 2 0.862511 -2.66454e-15 -2.66454e-15 
11 1 2 1.72001 -2.66454e-15 -2.66454e-15 
12 1 2 2.53915 -2.66454e-15 -2.66454e-15 
13 1 2 3.37564 -2.66454e-15 -2.66454e-15 
14 1 2 4.24536 -2.66454e-15 -2.66454e-15 
ITEM: TIMESTEP
430000
ITEM: NUMBER OF ATOMS
9
ITEM: BOX BOUNDS pp pp pp
-6.8560834901592891e+00 6.8560834901592891e+00
-6.8560834901592891e+00 6.8560834901592891e+00
-6.8560834901592891e+00 6.8560834901592891e+00
ITEM: ATOMS id mol type x y z 
6 1 2 -2.56166 -2.66454e-15 -2.66454e-15 
7 1 2 -1.69472 -2.66454e-15 -2.66454e-15 
8 1 2 -0.832468 -2.66454e-15 -2.66454e-15 
9 1 2 0.0261111 -2.66454e-15 -2.66454e-15 
10 1 2 0.85701 -2.66454e-15 -2.66454e-15 
11 1 2 1.68791 -2.66454e-15 -2.66454e-15 
12 1 2 2.54649 -2.66454e-15 -2.66454e-15 
13 1 2 3.40875 -2.66454e-15 -2.66454e-15 
14 1 2 4.27568 -2.66454e-15 -2.66454e-15 
ITEM: TIMESTEP
440000
ITEM: NUMBER OF ATOMS
9
ITEM: BOX BOUNDS pp pp pp
-6.8489407512859648e+00 6.8489407512859648e+00
-6.8489407512859648e+00 6.8489407512859648e+00
-6.8489407512859648e+00 6.8489407512859648e+00
ITEM: ATOMS id mol type x y z 
6 1 2 -2.52963 -2.66454e-15 -2.66454e-15 
7 1 2 -1.67899 -2.66454e-15 -2.66454e-15 
8 1 2 -0.864509 -2.66454e-15 -2.66454e-15 
9 1 2 -0.0327011 -2.66454e-15 -2.66454e-15 
10 1 2 0.856118 -2.66454e-15 -2.66454e-15 
11 1 2 1.74494 -2.66454e-15 -2.66454e-15 
12 1 2 2.57674 -2.66454e-15 -2.66454e-15 
13 1 2 3.39123 -2.66454e-15 -2.66454e-15 
14 1 2 4.24187 -2.66454e-15 -2.66454e-15 
ITEM: TIMESTEP
450000
ITEM: NUMBER OF ATOMS
9
ITEM: BOX BOUNDS pp pp pp
-6.8500793808365499e+00 6.8500793808365499e+00
-6.8500793808365499e+00 6.8500793808365499e+00
-6.8500793808365499e+00 6.8500793808365499e+00
ITEM: ATOMS id mol type x y z 
6 1 2 -2.57096 -2.66454e-15 -2.66454e-15 
7 1 2 -1.71563 -2.66454e-15 -2.66454e-15 
8 1 2 -0.853346 -2.66454e-15 -2.66454e-15 
9 1 2 0.0326515 -2.66454e-15 -2.66454e-15 
10 1 2 0.85626 -2.66454e-15 -2.66454e-15 
11 1 2 1.67987 -2.66454e-15 -2.66454e-15 
12 1 2 2.56587 -2.66454e-15 -2.66454e-15 
13 1 2 3.42815 -2.66454e-15 -2.66454e-15 
14 1 2 4.28348 -2.66454e-15 -2.66454e-15 
ITEM: TIMESTEP
460000
ITEM: NUMBER OF ATOMS
9
ITEM: BOX BOUNDS pp pp pp
-6.8328166565834572e+00 6.8328166565834572e+00
-6.8328166565834572e+00 6.8328166565834572e+00
-6.8328166565834572e+00 6.8328166565834572e+00
ITEM: ATOMS id mol type x y z 
6 1 2 -2.57504 -2.66454e-15 -2.66454e-15 
7 1 2 -1.7244 -2.66454e-15 -2.66454e-15 
8 1 2 -0.860521 -2.66454e-15 -2.66454e-15 
9 1 2 -0.00517228 -2.66454e-15 -2.66454e-15 
10 1 2 0.854102 -2.66454e-15 -2.66454e-15 
11 1 2 1.71338 -2.66454e-15 -2.66454e-15 
12 1 2 2.56873 -2.66454e-15 -2.66454e-15 
13 1 2 3.43261 -2.66454e-15 -2.66454e-15 
14 1 2 4.28325 -2.66454e-15 -2.66454e-15 
ITEM: TIMESTEP
470000
ITEM: NUMBER OF ATOMS
9
ITEM: BOX BOUNDS pp pp pp
-6.8555776893702323e+00 6.8555776893702323e+00
-6.8555776893702323e+00 6.8555776893702323e+00
-6.8555776893702323e+00 6.8555776893702323e+00
ITEM: ATOMS id mol type x y z 
6 1 2 -2.49106 -2.66454e-15 -2.66454e-15 
7 1 2 -1.64856 -2.66454e-15 -2.66454e-15 
8 1 2 -0.82942 -2.66454e-15 -2.66454e-15 
9 1 2 0.0208101 -2.66454e-15 -2.66454e-15 
10 1 2 0.856947 -2.66454e-15 -2.66454e-15 
11 1 2 1.69308 -2.66454e-15 -2.66454e-15 
12 1 2 2.54331 -2.66454e-15 -2.66454e-15 
13 1 2 3.36245 -2.66454e-15 -2.66454e-15 
14 1 2 4.20495 -2.66454e-15 -2.66454e-15 
ITEM: TIMESTEP
480000
ITEM: NUMBER OF ATOMS
9
ITEM: BOX BOUNDS pp pp pp
-6.8448636337799771e+00 6.8448636337799771e+00
-6.8448636337799771e+00 6.8448636337799771e+00
-6.8448636337799771e+00 6.8448636337799771e+00
ITEM: ATOMS id mol type x y z 
6 1 2 -2.57097 -2.66454e-15 -2.66454e-15 