ITEM: TIMESTEP
0
ITEM: NUMBER OF ATOMS
9
ITEM: BOX BOUNDS pp pp pp
-8.0000000000000000e+00 8.0000000000000000e+00
-8.0000000000000000e+00 8.0000000000000000e+00
-8.0000000000000000e+00 8.0000000000000000e+00
ITEM: ATOMS id mol type x y z 
6 1 2 -3 0 0 
7 1 2 -2 0 0 
8 1 2 -1 0 0 
9 1 2 0 0 0 
10 1 2 1 0 0 
11 1 2 2 0 0 
12 1 2 3 0 0 
13 1 2 4 0 0 
14 1 2 5 0 0 
ITEM: TIMESTEP
10000
ITEM: NUMBER OF ATOMS
9
ITEM: BOX BOUNDS pp pp pp
-6.8512027567132190e+00 6.8512027567132190e+00
-6.8512027567132190e+00 6.8512027567132190e+00
-6.8512027567132190e+00 6.8512027567132190e+00
ITEM: ATOMS id mol type x y z 
6 1 2 -2.57119 -2.66454e-15 -2.66454e-15 
7 1 2 -1.70374 -2.66454e-15 -2.66454e-15 
8 1 2 -0.83799 -2.66454e-15 -2.66454e-15 
9 1 2 -0.0200511 -2.66454e-15 -2.66454e-15 
10 1 2 0.8564 -2.66454e-15 -2.66454e-15 
11 1 2 1.73285 -2.66454e-15 -2.66454e-15 
12 1 2 2.55079 -2.66454e-15 -2.66454e-15 
13 1 2 3.41654 -2.66454e-15 -2.66454e-15 
14 1 2 4.28399 -2.66454e-15 -2.66454e-15 
ITEM: TIMESTEP
20000
ITEM: NUMBER OF ATOMS
9
ITEM: BOX BOUNDS pp pp pp
-6.8306199276424362e+00 6.8306199276424362e+00
-6.8306199276424362e+00 6.8306199276424362e+00
-6.8306199276424362e+00 6.8306199276424362e+00
ITEM: ATOMS id mol type x y z 
6 1 2 -2.56948 -2.66454e-15 -2.66454e-15 
7 1 2 -1.7241 -2.66454e-15 -2.66454e-15 
8 1 2 -0.858944 -2.66454e-15 -2.66454e-15 
9 1 2 0.0426411 -2.66454e-15 -2.66454e-15 
10 1 2 0.868409 -2.66454e-15 -2.66454e-15 
11 1 2 1.68489 -2.66454e-15 -2.66454e-15 
12 1 2 2.56904 -2.66454e-15 -2.66454e-15 
13 1 2 3.45938 -2.66454e-15 -2.66454e-15 
14 1 2 4.29396 -2.66454e-15 -2.66454e-15 
ITEM: TIMESTEP
30000
ITEM: NUMBER OF ATOMS
9
ITEM: BOX BOUNDS pp pp pp
-6.8800003700754342e+00 6.8800003700754342e+00
-6.8800003700754342e+00 6.8800003700754342e+00
-6.8800003700754342e+00 6.8800003700754342e+00
ITEM: ATOMS id mol type x y z 
6 1 2 -2.57783 -2.66454e-15 -2.66454e-15 
7 1 2 -1.65505 -2.66454e-15 -2.66454e-15 
8 1 2 -0.788585 -2.66454e-15 -2.66454e-15 
9 1 2 0.0547247 -2.66454e-15 -2.66454e-15 
10 1 2 0.924592 -2.66454e-15 -2.66454e-15 
11 1 2 1.754 -2.66454e-15 -2.66454e-15 
12 1 2 2.58164 -2.66454e-15 -2.66454e-15 
13 1 2 3.41155 -2.66454e-15 -2.66454e-15 
14 1 2 4.24666 -2.66454e-15 -2.66454e-15 
ITEM: TIMESTEP
40000
ITEM: NUMBER OF ATOMS
9
ITEM: BOX BOUNDS pp pp pp
-6.9023320971841127e+00 6.9023320971841127e+00
-6.9023320971841127e+00 6.9023320971841127e+00
-6.9023320971841127e+00 6.9023320971841127e+00
ITEM: ATOMS id mol type x y z 
6 1 2 -2.58239 -2.66454e-15 -2.66454e-15 
7 1 2 -1.75066 -2.66454e-15 -2.66454e-15 
8 1 2 -0.862296 -2.66454e-15 -2.66454e-15 
9 1 2 -0.0224827 -2.66454e-15 -2.66454e-15 
10 1 2 0.830302 -2.66454e-15 -2.66454e-15 
11 1 2 1.69484 -2.66454e-15 -2.66454e-15 
12 1 2 2.58116 -2.66454e-15 -2.66454e-15 
13 1 2 3.46513 -2.66454e-15 -2.66454e-15 
14 1 2 4.31064 -2.66454e-15 -2.66454e-15 
ITEM: TIMESTEP
50000
ITEM: NUMBER OF ATOMS
9
ITEM: BOX BOUNDS pp pp pp
-6.8402853594100579e+00 6.8402853594100579e+00
-6.8402853594100579e+00 6.8402853594100579e+00
-6.8402853594100579e+00 6.8402853594100579e+00
ITEM: ATOMS id mol type x y z 
6 1 2 -2.55554 -2.66454e-15 -2.66454e-15 
7 1 2 -1.73028 -2.66454e-15 -2.66454e-15 
8 1 2 -0.890899 -2.66454e-15 -2.66454e-15 
9 1 2 -0.049062 -2.66454e-15 -2.66454e-15 
10 1 2 0.8269 -2.66454e-15 -2.66454e-15 
11 1 2 1.66967 -2.66454e-15 -2.66454e-15 
12 1 2 2.56727 -2.66454e-15 -2.66454e-15 
13 1 2 3.39888 -2.66454e-15 -2.66454e-15 
14 1 2 4.24197 -2.66454e-15 -2.66454e-15 
ITEM: TIMESTEP
60000
ITEM: NUMBER OF ATOMS
9
ITEM: BOX BOUNDS pp pp pp
-6.8967690425342845e+00 6.8967690425342845e+00
-6.8967690425342845e+00 6.8967690425342845e+00
-6.8967690425342845e+00 6.8967690425342845e+00
ITEM: ATOMS id mol type x y z 
6 1 2 -2.57325 -2.66454e-15 -2.66454e-15 
7 1 2 -1.72801 -2.66454e-15 -2.66454e-15 
8 1 2 -0.84971 -2.66454e-15 -2.66454e-15 
9 1 2 0.00131188 -2.66454e-15 -2.66454e-15 
10 1 2 0.859334 -2.66454e-15 -2.66454e-15 
11 1 2 1.7204 -2.66454e-15 -2.66454e-15 
12 1 2 2.56373 -2.66454e-15 -2.66454e-15 
13 1 2 3.38226 -2.66454e-15 -2.66454e-15 
14 1 2 4.24405 -2.66454e-15 -2.66454e-15 
ITEM: TIMESTEP
70000
ITEM: NUMBER OF ATOMS
9
ITEM: BOX BOUNDS pp pp pp
-6.8451061289160977e+00 6.8451061289160977e+00
-6.8451061289160977e+00 6.8451061289160977e+00
-6.8451061289160977e+00 6.8451061289160977e+00
ITEM: ATOMS id mol type x y z 
6 1 2 -2.52799 -2.66454e-15 -2.66454e-15 
7 1 2 -1.71477 -2.66454e-15 -2.66454e-15 
8 1 2 -0.888768 -2.66454e-15 -2.66454e-15 
9 1 2 -0.0340586 -2.66454e-15 -2.66454e-15 
10 1 2 0.8014 -2.66454e-15 -2.66454e-15 
11 1 2 1.63326 -2.66454e-15 -2.66454e-15 
12 1 2 2.52606 -2.66454e-15 -2.66454e-15 
13 1 2 3.4303 -2.66454e-15 -2.66454e-15 
14 1 2 4.29681 -2.66454e-15 -2.66454e-15 
ITEM: TIMESTEP
80000
ITEM: NUMBER OF ATOMS
9
ITEM: BOX BOUNDS pp pp pp
-6.8869656854411598e+00 6.8869656854411598e+00
-6.8869656854411598e+00 6.8869656854411598e+00
-6.8869656854411598e+00 6.8869656854411598e+00
ITEM: ATOMS id mol type x y z 
6 1 2 -2.58717 -2.66454e-15 -2.66454e-15 
7 1 2 -1.73595 -2.66454e-15 -2.66454e-15 
8 1 2 -0.836272 -2.66454e-15 -2.66454e-15 
9 1 2 -0.00208816 -2.66454e-15 -2.66454e-15 
10 1 2 0.861324 -2.66454e-15 -2.66454e-15 
11 1 2 1.73994 -2.66454e-15 -2.66454e-15 
12 1 2 2.57862 -2.66454e-15 -2.66454e-15 
13 1 2 3.4355 -2.66454e-15 -2.66454e-15 
14 1 2 4.29902 -2.66454e-15 -2.66454e-15 
ITEM: TIMESTEP
90000
ITEM: NUMBER OF ATOMS
9
ITEM: BOX BOUNDS pp pp pp
-6.8568035274928869e+00 6.8568035274928869e+00
-6.8568035274928869e+00 6.8568035274928869e+00
-6.8568035274928869e+00 6.8568035274928869e+00
ITEM: ATOMS id mol type x y z 
6 1 2 -2.52261 -2.66454e-15 -2.66454e-15 
7 1 2 -1.68412 -2.66454e-15 -2.66454e-15 
8 1 2 -0.817433 -2.66454e-15 -2.66454e-15 
9 1 2 0.0188778 -2.66454e-15 -2.66454e-15 
10 1 2 0.870261 -2.66454e-15 -2.66454e-15 
11 1 2 1.6768 -2.66454e-15 -2.66454e-15 
12 1 2 2.56691 -2.66454e-15 -2.66454e-15 
13 1 2 3.40319 -2.66454e-15 -2.66454e-15 
14 1 2 4.24103 -2.66454e-15 -2.66454e-15 
ITEM: TIMESTEP
100000
ITEM: NUMBER OF ATOMS
9
ITEM: BOX BOUNDS pp pp pp
-6.8385524167686391e+00 6.8385524167686391e+00
-6.8385524167686391e+00 6.8385524167686391e+00
-6.8385524167686391e+00 6.8385524167686391e+00
ITEM: ATOMS id mol type x y z 
6 1 2 -2.55445 -2.66454e-15 -2.66454e-15 
7 1 2 -1.70422 -2.66454e-15 -2.66454e-15 
8 1 2 -0.861138 -2.66454e-15 -2.66454e-15 
9 1 2 0.0180667 -2.66454e-15 -2.66454e-15 
10 1 2 0.875865 -2.66454e-15 -2.66454e-15 
11 1 2 1.7138 -2.66454e-15 -2.66454e-15 
12 1 2 2.58084 -2.66454e-15 -2.66454e-15 
13 1 2 3.41554 -2.66454e-15 -2.66454e-15 
14 1 2 4.25775 -2.66454e-15 -2.66454e-15 
ITEM: TIMESTEP
110000
ITEM: NUMBER OF ATOMS
9
ITEM: BOX BOUNDS pp pp pp
-6.8949930938199389e+00 6.8949930938199389e+00
-6.8949930938199389e+00 6.8949930938199389e+00
-6.8949930938199389e+00 6.8949930938199389e+00
ITEM: ATOMS id mol type x y z 
6 1 2 -2.57181 -2.66454e-15 -2.66454e-15 
7 1 2 -1.73557 -2.66454e-15 -2.66454e-15 
8 1 2 -0.886862 -2.66454e-15 -2.66454e-15 
9 1 2 -0.0343587 -2.66454e-15 -2.66454e-15 
10 1 2 0.852582 -2.66454e-15 -2.66454e-15 
11 1 2 1.67968 -2.66454e-15 -2.66454e-15 
12 1 2 2.55754 -2.66454e-15 -2.66454e-15 
13 1 2 3.39636 -2.66454e-15 -2.66454e-15 
14 1 2 4.26198 -2.66454e-15 -2.66454e-15 
ITEM: TIMESTEP
120000
ITEM: NUMBER OF ATOMS
9
ITEM: BOX BOUNDS pp pp pp
-6.8392970420437909e+00 6.8392970420437909e+00
-6.8392970420437909e+00 6.8392970420437909e+00
-6.8392970420437909e+00 6.8392970420437909e+00
ITEM: ATOMS id mol type x y z 
6 1 2 -2.58792 -2.66454e-15 -2.66454e-15 
7 1 2 -1.70459 -2.66454e-15 -2.66454e-15 
8 1 2 -0.840777 -2.66454e-15 -2.66454e-15 
9 1 2 0.0325248 -2.66454e-15 -2.66454e-15 
10 1 2 0.893733 -2.66454e-15 -2.66454e-15 
11 1 2 1.73306 -2.66454e-15 -2.66454e-15 
12 1 2 2.59613 -2.66454e-15 -2.66454e-15 
13 1 2 3.40068 -2.66454e-15 -2.66454e-15 
14 1 2 4.27636 -2.66454e-15 -2.66454e-15 
ITEM: TIMESTEP
130000
ITEM: NUMBER OF ATOMS
9
ITEM: BOX BOUNDS pp pp pp
-6.9090839739784453e+00 6.9090839739784453e+00
-6.9090839739784453e+00 6.9090839739784453e+00
-6.9090839739784453e+00 6.9090839739784453e+00
ITEM: ATOMS id mol type x y z 
6 1 2 -2.50692 -2.66454e-15 -2.66454e-15 
7 1 2 -1.68528 -2.66454e-15 -2.66454e-15 
8 1 2 -0.834861 -2.66454e-15 -2.66454e-15 
9 1 2 0.0444383 -2.66454e-15 -2.66454e-15 
10 1 2 0.906001 -2.66454e-15 -2.66454e-15 
11 1 2 1.72112 -2.66454e-15 -2.66454e-15 
12 1 2 2.57331 -2.66454e-15 -2.66454e-15 
13 1 2 3.39045 -2.66454e-15 -2.66454e-15 
14 1 2 4.23935 -2.66454e-15 -2.66454e-15 
ITEM: TIMESTEP
140000
ITEM: NUMBER OF ATOMS
9
ITEM: BOX BOUNDS pp pp pp
-6.8499398719409834e+00 6.8499398719409834e+00
-6.8499398719409834e+00 6.8499398719409834e+00
-6.8499398719409834e+00 6.8499398719409834e+00
ITEM: ATOMS id mol type x y z 
6 1 2 -2.57337 -2.66454e-15 -2.66454e-15 
7 1 2 -1.69141 -2.66454e-15 -2.66454e-15 
8 1 2 -0.831184 -2.66454e-15 -2.66454e-15 
9 1 2 0.00856489 -2.66454e-15 -2.66454e-15 
10 1 2 0.86941 -2.66454e-15 -2.66454e-15 
11 1 2 1.76106 -2.66454e-15 -2.66454e-15 
12 1 2 2.61565 -2.66454e-15 -2.66454e-15 
13 1 2 3.42376 -2.66454e-15 -2.66454e-15 
14 1 2 4.24976 -2.66454e-15 -2.66454e-15 
ITEM: TIMESTEP
150000
ITEM: NUMBER OF ATOMS
9
ITEM: BOX BOUNDS pp pp pp
-6.8705966428518330e+00 6.8705966428518330e+00
-6.8705966428518330e+00 6.8705966428518330e+00
-6.8705966428518330e+00 6.8705966428518330e+00
ITEM: ATOMS id mol type x y z 
6 1 2 -2.57327 -2.66454e-15 -2.66454e-15 
7 1 2 -1.7317 -2.66454e-15 -2.66454e-15 
8 1 2 -0.854699 -2.66454e-15 -2.66454e-15 
9 1 2 -0.0183724 -2.66454e-15 -2.66454e-15 
10 1 2 0.840498 -2.66454e-15 -2.66454e-15 
11 1 2 1.70251 -2.66454e-15 -2.66454e-15 
12 1 2 2.56857 -2.66454e-15 -2.66454e-15 
13 1 2 3.42443 -2.66454e-15 -2.66454e-15 
14 1 2 4.31586 -2.66454e-15 -2.66454e-15 
ITEM: TIMESTEP
160000
ITEM: NUMBER OF ATOMS
9
ITEM: BOX BOUNDS pp pp pp
-6.8845083031698691e+00 6.8845083031698691e+00
-6.8845083031698691e+00 6.8845083031698691e+00
-6.8845083031698691e+00 6.8845083031698691e+00
ITEM: ATOMS id mol type x y z 
6 1 2 -2.51543 -2.66454e-15 -2.66454e-15 
7 1 2 -1.66569 -2.66454e-15 -2.66454e-15 
8 1 2 -0.835208 -2.66454e-15 -2.66454e-15 
9 1 2 0.00873598 -2.66454e-15 -2.66454e-15 
10 1 2 0.809692 -2.66454e-15 -2.66454e-15 
11 1 2 1.65587 -2.66454e-15 -2.66454e-15 
12 1 2 2.49979 -2.66454e-15 -2.66454e-15 
13 1 2 3.37084 -2.66454e-15 -2.66454e-15 
14 1 2 4.23115 -2.66454e-15 -2.66454e-15 
ITEM: TIMESTEP
170000
ITEM: NUMBER OF ATOMS
9
ITEM: BOX BOUNDS pp pp pp
-6.8854496734012809e+00 6.8854496734012809e+00
-6.8854496734012809e+00 6.8854496734012809e+00
-6.8854496734012809e+00 6.8854496734012809e+00
ITEM: ATOMS id mol type x y z 
6 1 2 -2.61309 -2.66454e-15 -2.66454e-15 
7 1 2 -1.7461 -2.66454e-15 -2.66454e-15 
8 1 2 -0.880794 -2.66454e-15 -2.66454e-15 
9 1 2 -0.0492611 -2.66454e-15 -2.66454e-15 
10 1 2 0.846676 -2.66454e-15 -2.66454e-15 
11 1 2 1.72063 -2.66454e-15 -2.66454e-15 
12 1 2 2.58842 -2.66454e-15 -2.66454e-15 
13 1 2 3.45748 -2.66454e-15 -2.66454e-15 
14 1 2 4.32271 -2.66454e-15 -2.66454e-15 
ITEM: TIMESTEP
180000
ITEM: NUMBER OF ATOMS
9
ITEM: BOX BOUNDS pp pp pp
-6.8628022725465723e+00 6.8628022725465723e+00
-6.8628022725465723e+00 6.8628022725465723e+00
-6.8628022725465723e+00 6.8628022725465723e+00
ITEM: ATOMS id mol type x y z 
6 1 2 -2.54478 -2.66454e-15 -2.66454e-15 
7 1 2 -1.69298 -2.66454e-15 -2.66454e-15 
8 1 2 -0.871627 -2.66454e-15 -2.66454e-15 
9 1 2 -0.020598 -2.66454e-15 -2.66454e-15 
10 1 2 0.806732 -2.66454e-15 -2.66454e-15 
11 1 2 1.69356 -2.66454e-15 -2.66454e-15 
12 1 2 2.56442 -2.66454e-15 -2.66454e-15 
13 1 2 3.4021 -2.66454e-15 -2.66454e-15 
14 1 2 4.27848 -2.66454e-15 -2.66454e-15 
ITEM: TIMESTEP
190000
ITEM: NUMBER OF ATOMS
9
ITEM: BOX BOUNDS pp pp pp
-6.8957525348548394e+00 6.8957525348548394e+00
-6.8957525348548394e+00 6.8957525348548394e+00
-6.8957525348548394e+00 6.8957525348548394e+00
ITEM: ATOMS id mol type x y z 
6 1 2 -2.53587 -2.66454e-15 -2.66454e-15 
7 1 2 -1.66987 -2.66454e-15 -2.66454e-15 
8 1 2 -0.848481 -2.66454e-15 -2.66454e-15 
9 1 2 -0.0122497 -2.66454e-15 -2.66454e-15 
10 1 2 0.835394 -2.66454e-15 -2.66454e-15 
11 1 2 1.69116 -2.66454e-15 -2.66454e-15 
12 1 2 2.5929 -2.66454e-15 -2.66454e-15 
13 1 2 3.4516 -2.66454e-15 -2.66454e-15 
14 1 2 4.29759 -2.66454e-15 -2.66454e-15 
ITEM: TIMESTEP
200000
ITEM: NUMBER OF ATOMS
9
ITEM: BOX BOUNDS pp pp pp
-6.8548924912022127e+00 6.8548924912022127e+00
-6.8548924912022127e+00 6.8548924912022127e+00
-6.8548924912022127e+00 6.8548924912022127e+00
ITEM: ATOMS id mol type x y z 
6 1 2 -2.61134 -2.66454e-15 -2.66454e-15 
7 1 2 -1.72334 -2.66454e-15 -2.66454e-15 
8 1 2 -0.838516 -2.66454e-15 -2.66454e-15 
9 1 2 -0.00278375 -2.66454e-15 -2.66454e-15 
10 1 2 0.881337 -2.66454e-15 -2.66454e-15 
11 1 2 1.70806 -2.66454e-15 -2.66454e-15 
12 1 2 2.58313 -2.66454e-15 -2.66454e-15 
13 1 2 3.4526 -2.66454e-15 -2.66454e-15 
14 1 2 4.31234 -2.66454e-15 -2.66454e-15 
ITEM: TIMESTEP
210000
ITEM: NUMBER OF ATOMS
9
ITEM: BOX BOUNDS pp pp pp
-6.8577959862611202e+00 6.8577959862611202e+00
-6.8577959862611202e+00 6.8577959862611202e+00
-6.8577959862611202e+00 6.8577959862611202e+00
ITEM: ATOMS id mol type x y z 
6 1 2 -2.55159 -2.66454e-15 -2.66454e-15 
7 1 2 -1.69261 -2.66454e-15 -2.66454e-15 
8 1 2 -0.827436 -2.66454e-15 -2.66454e-15 
9 1 2 0.025863 -2.66454e-15 -2.66454e-15 
10 1 2 0.871051 -2.66454e-15 -2.66454e-15 
11 1 2 1.7561 -2.66454e-15 -2.66454e-15 
12 1 2 2.59223 -2.66454e-15 -2.66454e-15 
13 1 2 3.42289 -2.66454e-15 -2.66454e-15 
14 1 2 4.25968 -2.66454e-15 -2.66454e-15 
ITEM: TIMESTEP
220000
ITEM: NUMBER OF ATOMS
9
ITEM: BOX BOUNDS pp pp pp
-6.9318505816800782e+00 6.9318505816800782e+00
-6.9318505816800782e+00 6.9318505816800782e+00
-6.9318505816800782e+00 6.9318505816800782e+00
ITEM: ATOMS id mol type x y z 
6 1 2 -2.63104 -2.66454e-15 -2.66454e-15 
7 1 2 -1.70444 -2.66454e-15 -2.66454e-15 
8 1 2 -0.839489 -2.66454e-15 -2.66454e-15 
9 1 2 0.0347906 -2.66454e-15 -2.66454e-15 
10 1 2 0.872026 -2.66454e-15 -2.66454e-15 
11 1 2 1.77643 -2.66454e-15 -2.66454e-15 
12 1 2 2.62884 -2.66454e-15 -2.66454e-15 
13 1 2 3.50698 -2.66454e-15 -2.66454e-15 
14 1 2 4.35826 -2.66454e-15 -2.66454e-15 
ITEM: TIMESTEP
230000
ITEM: NUMBER OF ATOMS
9
ITEM: BOX BOUNDS pp pp pp
-6.8418701159113349e+00 6.8418701159113349e+00
-6.8418701159113349e+00 6.8418701159113349e+00
-6.8418701159113349e+00 6.8418701159113349e+00
ITEM: ATOMS id mol type x y z 
6 1 2 -2.52492 -2.66454e-15 -2.66454e-15 
7 1 2 -1.66714 -2.66454e-15 -2.66454e-15 
8 1 2 -0.86896 -2.66454e-15 -2.66454e-15 
9 1 2 0.0254657 -2.66454e-15 -2.66454e-15 
10 1 2 0.853616 -2.66454e-15 -2.66454e-15 
11 1 2 1.71031 -2.66454e-15 -2.66454e-15 
12 1 2 2.56831 -2.66454e-15 -2.66454e-15 
13 1 2 3.41933 -2.66454e-15 -2.66454e-15 
14 1 2 4.27527 -2.66454e-15 -2.66454e-15 
ITEM: TIMESTEP
240000
ITEM: NUMBER OF ATOMS
9
ITEM: BOX BOUNDS pp pp pp
-6.9045729219583745e+00 6.9045729219583745e+00
-6.9045729219583745e+00 6.9045729219583745e+00
-6.9045729219583745e+00 6.9045729219583745e+00
ITEM: ATOMS id mol type x y z 
6 1 2 -2.52626 -2.66454e-15 -2.66454e-15 
7 1 2 -1.66398 -2.66454e-15 -2.66454e-15 
8 1 2 -0.825028 -2.66454e-15 -2.66454e-15 
9 1 2 0.0191728 -2.66454e-15 -2.66454e-15 
10 1 2 0.857211 -2.66454e-15 -2.66454e-15 
11 1 2 1.72103 -2.66454e-15 -2.66454e-15 
12 1 2 2.58489 -2.66454e-15 -2.66454e-15 
13 1 2 3.45374 -2.66454e-15 -2.66454e-15 
14 1 2 4.29193 -2.66454e-15 -2.66454e-15 
ITEM: TIMESTEP
250000
ITEM: NUMBER OF ATOMS
9
ITEM: BOX BOUNDS pp pp pp
-6.8819542768898181e+00 6.8819542768898181e+00
-6.8819542768898181e+00 6.8819542768898181e+00
-6.8819542768898181e+00 6.8819542768898181e+00
ITEM: ATOMS id mol type x y z 
6 1 2 -2.57164 -2.66454e-15 -2.66454e-15 
7 1 2 -1.69342 -2.66454e-15 -2.66454e-15 
8 1 2 -0.838863 -2.66454e-15 -2.66454e-15 
9 1 2 -0.0174633 -2.66454e-15 -2.66454e-15 
10 1 2 0.82141 -2.66454e-15 -2.66454e-15 
11 1 2 1.66811 -2.66454e-15 -2.66454e-15 
12 1 2 2.54617 -2.66454e-15 -2.66454e-15 
13 1 2 3.40233 -2.66454e-15 -2.66454e-15 
14 1 2 4.28286 -2.66454e-15 -2.66454e-15 
ITEM: TIMESTEP
260000
ITEM: NUMBER OF ATOMS
9
ITEM: BOX BOUNDS pp pp pp
-6.9335263620709311e+00 6.9335263620709311e+00
-6.9335263620709311e+00 6.9335263620709311e+00
-6.9335263620709311e+00 6.9335263620709311e+00
ITEM: ATOMS id mol type x y z 
6 1 2 -2.53499 -2.66454e-15 -2.66454e-15 
7 1 2 -1.69955 -2.66454e-15 -2.66454e-15 
8 1 2 -0.835583 -2.66454e-15 -2.66454e-15 
9 1 2 -0.0109878 -2.66454e-15 -2.66454e-15 
10 1 2 0.819408 -2.66454e-15 -2.66454e-15 
11 1 2 1.70368 -2.66454e-15 -2.66454e-15 
12 1 2 2.56108 -2.66454e-15 -2.66454e-15 
13 1 2 3.41089 -2.66454e-15 -2.66454e-15 
14 1 2 4.35086 -2.66454e-15 -2.66454e-15 
ITEM: TIMESTEP
270000
ITEM: NUMBER OF ATOMS
9
ITEM: BOX BOUNDS pp pp pp
-6.8747366217991894e+00 6.8747366217991894e+00
-6.8747366217991894e+00 6.8747366217991894e+00
-6.8747366217991894e+00 6.8747366217991894e+00
ITEM: ATOMS id mol type x y z 
6 1 2 -2.55343 -2.66454e-15 -2.66454e-15 
7 1 2 -1.70018 -2.66454e-15 -2.66454e-15 
8 1 2 -0.859184 -2.66454e-15 -2.66454e-15 
9 1 2 -0.024536 -2.66454e-15 -2.66454e-15 
10 1 2 0.817378 -2.66454e-15 -2.66454e-15 
11 1 2 1.70882 -2.66454e-15 -2.66454e-15 
12 1 2 2.548 -2.66454e-15 -2.66454e-15 
13 1 2 3.40171 -2.66454e-15 -2.66454e-15 
14 1 2 4.32735 -2.66454e-15 -2.66454e-15 
ITEM: TIMESTEP
280000
ITEM: NUMBER OF ATOMS
9
ITEM: BOX BOUNDS pp pp pp
-6.8722737056862977e+00 6.8722737056862977e+00
-6.8722737056862977e+00 6.8722737056862977e+00
-6.8722737056862977e+00 6.8722737056862977e+00
ITEM: ATOMS id mol type x y z 
6 1 2 -2.57837 -2.66454e-15 -2.66454e-15 
7 1 2 -1.71331 -2.66454e-15 -2.66454e-15 
8 1 2 -0.803507 -2.66454e-15 -2.66454e-15 
9 1 2 0.0291377 -2.66454e-15 -2.66454e-15 
10 1 2 0.894749 -2.66454e-15 -2.66454e-15 
11 1 2 1.74019 -2.66454e-15 -2.66454e-15 
12 1 2 2.53841 -2.66454e-15 -2.66454e-15 
13 1 2 3.3959 -2.66454e-15 -2.66454e-15 
14 1 2 4.29017 -2.66454e-15 -2.66454e-15 
ITEM: TIMESTEP
290000
ITEM: NUMBER OF ATOMS
9
ITEM: BOX BOUNDS pp pp pp
-6.8667766490574493e+00 6.8667766490574493e+00
-6.8667766490574493e+00 6.8667766490574493e+00
-6.8667766490574493e+00 6.8667766490574493e+00
ITEM: ATOMS id mol type x y z 
6 1 2 -2.57101 -2.66454e-15 -2.66454e-15 
7 1 2 -1.70532 -2.66454e-15 -2.66454e-15 
8 1 2 -0.84684 -2.66454e-15 -2.66454e-15 
9 1 2 0.0357873 -2.66454e-15 -2.66454e-15 
10 1 2 0.892599 -2.66454e-15 -2.66454e-15 
11 1 2 1.73091 -2.66454e-15 -2.66454e-15 
12 1 2 2.5575 -2.66454e-15 -2.66454e-15 
13 1 2 3.40767 -2.66454e-15 -2.66454e-15 
14 1 2 4.28194 -2.66454e-15 -2.66454e-15 
ITEM: TIMESTEP
300000
ITEM: NUMBER OF ATOMS
9
ITEM: BOX BOUNDS pp pp pp
-6.8718646431644226e+00 6.8718646431644226e+00
-6.8718646431644226e+00 6.8718646431644226e+00
-6.8718646431644226e+00 6.8718646431644226e+00
ITEM: ATOMS id mol type x y z 
6 1 2 -2.59574 -2.66454e-15 -2.66454e-15 
7 1 2 -1.72151 -2.66454e-15 -2.66454e-15 
8 1 2 -0.861522 -2.66454e-15 -2.66454e-15 
9 1 2 -0.0320463 -2.66454e-15 -2.66454e-15 
10 1 2 0.829252 -2.66454e-15 -2.66454e-15 
11 1 2 1.68946 -2.66454e-15 -2.66454e-15 
12 1 2 2.57806 -2.66454e-15 -2.66454e-15 
13 1 2 3.4416 -2.66454e-15 -2.66454e-15 
14 1 2 4.32414 -2.66454e-15 -2.66454e-15 
ITEM: TIMESTEP
310000
ITEM: NUMBER OF ATOMS
9
ITEM: BOX BOUNDS pp pp pp
-6.8581899791262835e+00 6.8581899791262835e+00
-6.8581899791262835e+00 6.8581899791262835e+00
-6.8581899791262835e+00 6.8581899791262835e+00
ITEM: ATOMS id mol type x y z 
6 1 2 -2.54194 -2.66454e-15 -2.66454e-15 
7 1 2 -1.71728 -2.66454e-15 -2.66454e-15 
8 1 2 -0.88975 -2.66454e-15 -2.66454e-15 
9 1 2 -0.0136463 -2.66454e-15 -2.66454e-15 
10 1 2 0.822454 -2.66454e-15 -2.66454e-15 
11 1 2 1.70091 -2.66454e-15 -2.66454e-15 
12 1 2 2.53171 -2.66454e-15 -2.66454e-15 
13 1 2 3.4083 -2.66454e-15 -2.66454e-15 
14 1 2 4.2733 -2.66454e-15 -2.66454e-15 
ITEM: TIMESTEP
320000
ITEM: NUMBER OF ATOMS
9
ITEM: BOX BOUNDS pp pp pp
-6.8754229302622241e+00 6.8754229302622241e+00
-6.8754229302622241e+00 6.8754229302622241e+00
-6.8754229302622241e+00 6.8754229302622241e+00
ITEM: ATOMS id mol type x y z 
6 1 2 -2.55913 -2.66454e-15 -2.66454e-15 
7 1 2 -1.70742 -2.66454e-15 -2.66454e-15 
8 1 2 -0.823307 -2.66454e-15 -2.66454e-15 
9 1 2 0.00206508 -2.66454e-15 -2.66454e-15 
10 1 2 0.837639 -2.66454e-15 -2.66454e-15 
11 1 2 1.71207 -2.66454e-15 -2.66454e-15 
12 1 2 2.57948 -2.66454e-15 -2.66454e-15 
13 1 2 3.42534 -2.66454e-15 -2.66454e-15 
14 1 2 4.27424 -2.66454e-15 -2.66454e-15 
ITEM: TIMESTEP
330000
ITEM: NUMBER OF ATOMS
9
ITEM: BOX BOUNDS pp pp pp
-6.8743250220682484e+00 6.8743250220682484e+00
-6.8743250220682484e+00 6.8743250220682484e+00
-6.8743250220682484e+00 6.8743250220682484e+00
ITEM: ATOMS id mol type x y z 
6 1 2 -2.58927 -2.66454e-15 -2.66454e-15 
7 1 2 -1.73814 -2.66454e-15 -2.66454e-15 
8 1 2 -0.813484 -2.66454e-15 -2.66454e-15 
9 1 2 0.0391411 -2.66454e-15 -2.66454e-15 
10 1 2 0.88044 -2.66454e-15 -2.66454e-15 
11 1 2 1.7504 -2.66454e-15 -2.66454e-15 
12 1 2 2.59417 -2.66454e-15 -2.66454e-15 
13 1 2 3.43232 -2.66454e-15 -2.66454e-15 
14 1 2 4.25092 -2.66454e-15 -2.66454e-15 
ITEM: TIMESTEP
340000
ITEM: NUMBER OF ATOMS
9
ITEM: BOX BOUNDS pp pp pp
-6.8982703386630391e+00 6.8982703386630391e+00
-6.8982703386630391e+00 6.8982703386630391e+00
-6.8982703386630391e+00 6.8982703386630391e+00
ITEM: ATOMS id mol type x y z 
6 1 2 -2.62606 -2.66454e-15 -2.66454e-15 
7 1 2 -1.74435 -2.66454e-15 -2.66454e-15 
8 1 2 -0.913679 -2.66454e-15 -2.66454e-15 
9 1 2 -0.0262874 -2.66454e-15 -2.66454e-15 
10 1 2 0.865888 -2.66454e-15 -2.66454e-15 
11 1 2 1.73486 -2.66454e-15 -2.66454e-15 
12 1 2 2.60949 -2.66454e-15 -2.66454e-15 
13 1 2 3.49168 -2.66454e-15 -2.66454e-15 
14 1 2 4.35851 -2.66454e-15 -2.66454e-15 
ITEM: TIMESTEP
350000
ITEM: NUMBER OF ATOMS
9
ITEM: BOX BOUNDS pp pp pp
-6.8482258754057721e+00 6.8482258754057721e+00
-6.8482258754057721e+00 6.8482258754057721e+00
-6.8482258754057721e+00 6.8482258754057721e+00
ITEM: ATOMS id mol type x y z 
6 1 2 -2.58794 -2.66454e-15 -2.66454e-15 
7 1 2 -1.71977 -2.66454e-15 -2.66454e-15 
8 1 2 -0.85496 -2.66454e-15 -2.66454e-15 
9 1 2 -0.0160601 -2.66454e-15 -2.66454e-15 
10 1 2 0.855509 -2.66454e-15 -2.66454e-15 
11 1 2 1.73428 -2.66454e-15 -2.66454e-15 
12 1 2 2.60849 -2.66454e-15 -2.66454e-15 
13 1 2 3.4449 -2.66454e-15 -2.66454e-15 
14 1 2 4.25992 -2.66454e-15 -2.66454e-15 
ITEM: TIMESTEP
360000
ITEM: NUMBER OF ATOMS
9
ITEM: BOX BOUNDS pp pp pp
-6.8256733474485181e+00 6.8256733474485181e+00
-6.8256733474485181e+00 6.8256733474485181e+00
-6.8256733474485181e+00 6.8256733474485181e+00
ITEM: ATOMS id mol type x y z 
6 1 2 -2.57203 -2.66454e-15 -2.66454e-15 
7 1 2 -1.70288 -2.66454e-15 -2.66454e-15 
8 1 2 -0.847118 -2.66454e-15 -2.66454e-15 
9 1 2 -0.0271769 -2.66454e-15 -2.66454e-15 
10 1 2 0.813957 -2.66454e-15 -2.66454e-15 
11 1 2 1.68525 -2.66454e-15 -2.66454e-15 
12 1 2 2.53725 -2.66454e-15 -2.66454e-15 
13 1 2 3.4368 -2.66454e-15 -2.66454e-15 
14 1 2 4.26726 -2.66454e-15 -2.66454e-15 
ITEM: TIMESTEP
370000
ITEM: NUMBER OF ATOMS
9
ITEM: BOX BOUNDS pp pp pp
-6.8531389263891205e+00 6.8531389263891205e+00
-6.8531389263891205e+00 6.8531389263891205e+00
-6.8531389263891205e+00 6.8531389263891205e+00
ITEM: ATOMS id mol type x y z 
6 1 2 -2.55199 -2.66454e-15 -2.66454e-15 
7 1 2 -1.70245 -2.66454e-15 -2.66454e-15 
8 1 2 -0.857335 -2.66454e-15 -2.66454e-15 
9 1 2 0.0128036 -2.66454e-15 -2.66454e-15 
10 1 2 0.847112 -2.66454e-15 -2.66454e-15 
11 1 2 1.69386 -2.66454e-15 -2.66454e-15 
12 1 2 2.53409 -2.66454e-15 -2.66454e-15 
13 1 2 3.38706 -2.66454e-15 -2.66454e-15 
14 1 2 4.25068 -2.66454e-15 -2.66454e-15 
ITEM: TIMESTEP
380000
ITEM: NUMBER OF ATOMS
9
ITEM: BOX BOUNDS pp pp pp
-6.8808626571602964e+00 6.8808626571602964e+00
-6.8808626571602964e+00 6.8808626571602964e+00
-6.8808626571602964e+00 6.8808626571602964e+00
ITEM: ATOMS id mol type x y z 
6 1 2 -2.5473 -2.66454e-15 -2.66454e-15 
7 1 2 -1.72503 -2.66454e-15 -2.66454e-15 
8 1 2 -0.865261 -2.66454e-15 -2.66454e-15 
9 1 2 0.00934594 -2.66454e-15 -2.66454e-15 
10 1 2 0.836562 -2.66454e-15 -2.66454e-15 
11 1 2 1.686 -2.66454e-15 -2.66454e-15 
12 1 2 2.56807 -2.66454e-15 -2.66454e-15 
13 1 2 3.38653 -2.66454e-15 -2.66454e-15 
14 1 2 4.26913 -2.66454e-15 -2.66454e-15 
ITEM: TIMESTEP
390000
ITEM: NUMBER OF ATOMS
9
ITEM: BOX BOUNDS pp pp pp
-6.8842600978133097e+00 6.8842600978133097e+00
-6.8842600978133097e+00 6.8842600978133097e+00
-6.8842600978133097e+00 6.8842600978133097e+00
ITEM: ATOMS id mol type x y z 
6 1 2 -2.52983 -2.66454e-15 -2.66454e-15 
7 1 2 -1.68945 -2.66454e-15 -2.66454e-15 
8 1 2 -0.814843 -2.66454e-15 -2.66454e-15 
9 1 2 0.00721054 -2.66454e-15 -2.66454e-15 
10 1 2 0.824398 -2.66454e-15 -2.66454e-15 
11 1 2 1.66501 -2.66454e-15 -2.66454e-15 
12 1 2 2.52062 -2.66454e-15 -2.66454e-15 
13 1 2 3.39384 -2.66454e-15 -2.66454e-15 
14 1 2 4.23639 -2.66454e-15 -2.66454e-15 
ITEM: TIMESTEP
400000
ITEM: NUMBER OF ATOMS
9
ITEM: BOX BOUNDS pp pp pp
-6.8912790488372844e+00 6.8912790488372844e+00
-6.8912790488372844e+00 6.8912790488372844e+00
-6.8912790488372844e+00 6.8912790488372844e+00
ITEM: ATOMS id mol type x y z 
6 1 2 -2.51983 -2.66454e-15 -2.66454e-15 
7 1 2 -1.65883 -2.66454e-15 -2.66454e-15 
8 1 2 -0.822937 -2.66454e-15 -2.66454e-15 
9 1 2 0.0185336 -2.66454e-15 -2.66454e-15 
10 1 2 0.868943 -2.66454e-15 -2.66454e-15 
11 1 2 1.72294 -2.66454e-15 -2.66454e-15 
12 1 2 2.57521 -2.66454e-15 -2.66454e-15 
13 1 2 3.40046 -2.66454e-15 -2.66454e-15 
14 1 2 4.23671 -2.66454e-15 -2.66454e-15 
ITEM: TIMESTEP
410000
ITEM: NUMBER OF ATOMS
9
ITEM: BOX BOUNDS pp pp pp
-6.9009041845109733e+00 6.9009041845109733e+00
-6.9009041845109733e+00 6.9009041845109733e+00
-6.9009041845109733e+00 6.9009041845109733e+00
ITEM: ATOMS id mol type x y z 
6 1 2 -2.57741 -2.66454e-15 -2.66454e-15 
7 1 2 -1.67968 -2.66454e-15 -2.66454e-15 
8 1 2 -0.80172 -2.66454e-15 -2.66454e-15 
9 1 2 0.0835989 -2.66454e-15 -2.66454e-15 
10 1 2 0.908356 -2.66454e-15 -2.66454e-15 
11 1 2 1.75775 -2.66454e-15 -2.66454e-15 
12 1 2 2.63367 -2.66454e-15 -2.66454e-15 
13 1 2 3.43003 -2.66454e-15 -2.66454e-15 
14 1 2 4.27291 -2.66454e-15 -2.66454e-15 
ITEM: TIMESTEP
420000
ITEM: NUMBER OF ATOMS
9
ITEM: BOX BOUNDS pp pp pp
-6.8450188714212317e+00 6.8450188714212317e+00
-6.8450188714212317e+00 6.8450188714212317e+00
-6.8450188714212317e+00 6.8450188714212317e+00
ITEM: ATOMS id mol type x y z 
6 1 2 -2.55929 -2.66454e-15 -2.66454e-15 
7 1 2 -1.68738 -2.66454e-15 -2.66454e-15 
8 1 2 -0.829119 -2.66454e-15 -2.66454e-15 
9 1 2 0.0122787 -2.66454e-15 -2.66454e-15 
10 1 2 0.849467 -2.66454e-15 -2.66454e-15 
11 1 2 1.70177 -2.66454e-15 -2.66454e-15 
12 1 2 2.58194 -2.66454e-15 -2.66454e-15 
13 1 2 3.38764 -2.66454e-15 -2.66454e-15 
14 1 2 4.26608 -2.66454e-15 -2.66454e-15 
ITEM: TIMESTEP
430000
ITEM: NUMBER OF ATOMS
9
ITEM: BOX BOUNDS pp pp pp
-6.8474859705766988e+00 6.8474859705766988e+00
-6.8474859705766988e+00 6.8474859705766988e+00
-6.8474859705766988e+00 6.8474859705766988e+00
ITEM: ATOMS id mol type x y z 
6 1 2 -2.56994 -2.66454e-15 -2.66454e-15 
7 1 2 -1.70626 -2.66454e-15 -2.66454e-15 
8 1 2 -0.868775 -2.66454e-15 -2.66454e-15 
9 1 2 -0.0232198 -2.66454e-15 -2.66454e-15 
10 1 2 0.867252 -2.66454e-15 -2.66454e-15 
11 1 2 1.7131 -2.66454e-15 -2.66454e-15 
12 1 2 2.5557 -2.66454e-15 -2.66454e-15 
13 1 2 3.4416 -2.66454e-15 -2.66454e-15 
14 1 2 4.29318 -2.66454e-15 -2.66454e-15 
ITEM: TIMESTEP
440000
ITEM: NUMBER OF ATOMS
9
ITEM: BOX BOUNDS pp pp pp
-6.8883105796679409e+00 6.8883105796679409e+00
-6.8883105796679409e+00 6.8883105796679409e+00
-6.8883105796679409e+00 6.8883105796679409e+00
ITEM: ATOMS id mol type x y z 
6 1 2 -2.51104 -2.66454e-15 -2.66454e-15 
7 1 2 -1.70095 -2.66454e-15 -2.66454e-15 
8 1 2 -0.867743 -2.66454e-15 -2.66454e-15 
9 1 2 0.0103075 -2.66454e-15 -2.66454e-15 
10 1 2 0.866699 -2.66454e-15 -2.66454e-15 
11 1 2 1.73078 -2.66454e-15 -2.66454e-15 
12 1 2 2.57895 -2.66454e-15 -2.66454e-15 
13 1 2 3.42507 -2.66454e-15 -2.66454e-15 
14 1 2 4.28781 -2.66454e-15 -2.66454e-15 
ITEM: TIMESTEP
450000
ITEM: NUMBER OF ATOMS
9
ITEM: BOX BOUNDS pp pp pp
-6.8370678639991747e+00 6.8370678639991747e+00
-6.8370678639991747e+00 6.8370678639991747e+00
-6.8370678639991747e+00 6.8370678639991747e+00
ITEM: ATOMS id mol type x y z 
6 1 2 -2.53622 -2.66454e-15 -2.66454e-15 
7 1 2 -1.65688 -2.66454e-15 -2.66454e-15 
8 1 2 -0.825594 -2.66454e-15 -2.66454e-15 
9 1 2 0.0147741 -2.66454e-15 -2.66454e-15 
10 1 2 0.888213 -2.66454e-15 -2.66454e-15 
11 1 2 1.74151 -2.66454e-15 -2.66454e-15 
12 1 2 2.5641 -2.66454e-15 -2.66454e-15 
13 1 2 3.42159 -2.66454e-15 -2.66454e-15 
14 1 2 4.28031 -2.66454e-15 -2.66454e-15 
ITEM: TIMESTEP
460000
ITEM: NUMBER OF ATOMS
9
ITEM: BOX BOUNDS pp pp pp
-6.8858085090669308e+00 6.8858085090669308e+00
-6.8858085090669308e+00 6.8858085090669308e+00
-6.8858085090669308e+00 6.8858085090669308e+00
ITEM: ATOMS id mol type x y z 
6 1 2 -2.50214 -2.66454e-15 -2.66454e-15 
7 1 2 -1.67266 -2.66454e-15 -2.66454e-15 
8 1 2 -0.828366 -2.66454e-15 -2.66454e-15 
9 1 2 -0.00681429 -2.66454e-15 -2.66454e-15 
10 1 2 0.833421 -2.66454e-15 -2.66454e-15 
11 1 2 1.67184 -2.66454e-15 -2.66454e-15 
12 1 2 2.50564 -2.66454e-15 -2.66454e-15 
13 1 2 3.32123 -2.66454e-15 -2.66454e-15 
14 1 2 4.1681 -2.66454e-15 -2.66454e-15 
ITEM: TIMESTEP
470000
ITEM: NUMBER OF ATOMS
9
ITEM: BOX BOUNDS pp pp pp
-6.9281777288896027e+00 6.9281777288896027e+00
-6.9281777288896027e+00 6.9281777288896027e+00
-6.9281777288896027e+00 6.9281777288896027e+00
ITEM: ATOMS id mol type x y z 
6 1 2 -2.61215 -2.66454e-15 -2.66454e-15 
7 1 2 -1.76252 -2.66454e-15 -2.66454e-15 
8 1 2 -0.850631 -2.66454e-15 -2.66454e-15 
9 1 2 0.0116938 -2.66454e-15 -2.66454e-15 
10 1 2 0.848708 -2.66454e-15 -2.66454e-15 
11 1 2 1.70353 -2.66454e-15 -2.66454e-15 
12 1 2 2.59241 -2.66454e-15 -2.66454e-15 
13 1 2 3.46845 -2.66454e-15 -2.66454e-15 
14 1 2 4.35195 -2.66454e-15 -2.66454e-15 
ITEM: TIMESTEP
480000
ITEM: NUMBER OF ATOMS
9
ITEM: BOX BOUNDS pp pp pp
-6.8419677278416140e+00 6.8419677278416140e+00
-6.8419677278416140e+00 6.8419677278416140e+00
-6.8419677278416140e+00 6.8419677278416140e+00
ITEM: ATOMS id mol type x y z 
6 1 2 -2.55229 -2.66454e-15 -2.66454e-15 