ITEM: TIMESTEP
0
ITEM: NUMBER OF ATOMS
7
ITEM: BOX BOUNDS pp pp pp
-8.0000000000000000e+00 8.0000000000000000e+00
-8.0000000000000000e+00 8.0000000000000000e+00
-8.0000000000000000e+00 8.0000000000000000e+00
ITEM: ATOMS id mol type x y z 
1 1 1 -8 0 0 
2 1 1 -7 0 0 
3 1 1 -6 0 0 
4 1 1 -5 0 0 
5 1 1 -4 0 0 
15 1 1 6 0 0 
16 1 1 7 0 0 
ITEM: TIMESTEP
10000
ITEM: NUMBER OF ATOMS
7
ITEM: BOX BOUNDS pp pp pp
-6.8512027567132190e+00 6.8512027567132190e+00
-6.8512027567132190e+00 6.8512027567132190e+00
-6.8512027567132190e+00 6.8512027567132190e+00
ITEM: ATOMS id mol type x y z 
2 1 1 -5.9948 -2.66454e-15 -2.66454e-15 
1 1 1 -6.82969 -2.66454e-15 -2.66454e-15 
3 1 1 -5.15992 -2.66454e-15 -2.66454e-15 
4 1 1 -4.28921 -2.66454e-15 -2.66454e-15 
5 1 1 -3.43045 -2.66454e-15 -2.66454e-15 
15 1 1 5.14325 -2.66454e-15 -2.66454e-15 
16 1 1 6.00201 -2.66454e-15 -2.66454e-15 
ITEM: TIMESTEP
20000
ITEM: NUMBER OF ATOMS
7
ITEM: BOX BOUNDS pp pp pp
-6.8306199276424362e+00 6.8306199276424362e+00
-6.8306199276424362e+00 6.8306199276424362e+00
-6.8306199276424362e+00 6.8306199276424362e+00
ITEM: ATOMS id mol type x y z 
2 1 1 -5.99129 -2.66454e-15 -2.66454e-15 
1 1 1 -6.82818 -2.66454e-15 -2.66454e-15 
3 1 1 -5.14351 -2.66454e-15 -2.66454e-15 
4 1 1 -4.2956 -2.66454e-15 -2.66454e-15 
5 1 1 -3.45443 -2.66454e-15 -2.66454e-15 
15 1 1 5.12821 -2.66454e-15 -2.66454e-15 
16 1 1 5.98839 -2.66454e-15 -2.66454e-15 
ITEM: TIMESTEP
30000
ITEM: NUMBER OF ATOMS
7
ITEM: BOX BOUNDS pp pp pp
-6.8800003700754342e+00 6.8800003700754342e+00
-6.8800003700754342e+00 6.8800003700754342e+00
-6.8800003700754342e+00 6.8800003700754342e+00
ITEM: ATOMS id mol type x y z 
2 1 1 -6.03507 -2.66454e-15 -2.66454e-15 
1 1 1 6.82789 -2.66454e-15 -2.66454e-15 
3 1 1 -5.18627 -2.66454e-15 -2.66454e-15 
4 1 1 -4.28012 -2.66454e-15 -2.66454e-15 
5 1 1 -3.43861 -2.66454e-15 -2.66454e-15 
15 1 1 5.07869 -2.66454e-15 -2.66454e-15 
16 1 1 5.9618 -2.66454e-15 -2.66454e-15 
ITEM: TIMESTEP
40000
ITEM: NUMBER OF ATOMS
7
ITEM: BOX BOUNDS pp pp pp
-6.9023320971841127e+00 6.9023320971841127e+00
-6.9023320971841127e+00 6.9023320971841127e+00
-6.9023320971841127e+00 6.9023320971841127e+00
ITEM: ATOMS id mol type x y z 
2 1 1 -6.03267 -2.66454e-15 -2.66454e-15 
3 1 1 -5.1431 -2.66454e-15 -2.66454e-15 
4 1 1 -4.29571 -2.66454e-15 -2.66454e-15 
5 1 1 -3.40932 -2.66454e-15 -2.66454e-15 
15 1 1 5.16628 -2.66454e-15 -2.66454e-15 
1 1 1 6.90606 -2.66454e-15 -2.66454e-15 
16 1 1 6.04655 -2.66454e-15 -2.66454e-15 
ITEM: TIMESTEP
50000
ITEM: NUMBER OF ATOMS
7
ITEM: BOX BOUNDS pp pp pp
-6.8402853594100579e+00 6.8402853594100579e+00
-6.8402853594100579e+00 6.8402853594100579e+00
-6.8402853594100579e+00 6.8402853594100579e+00
ITEM: ATOMS id mol type x y z 
2 1 1 -5.9313 -2.66454e-15 -2.66454e-15 
3 1 1 -5.07374 -2.66454e-15 -2.66454e-15 
4 1 1 -4.22962 -2.66454e-15 -2.66454e-15 
5 1 1 -3.39319 -2.66454e-15 -2.66454e-15 
15 1 1 5.11369 -2.66454e-15 -2.66454e-15 
1 1 1 6.8629 -2.66454e-15 -2.66454e-15 
16 1 1 6.01263 -2.66454e-15 -2.66454e-15 
ITEM: TIMESTEP
60000
ITEM: NUMBER OF ATOMS
7
ITEM: BOX BOUNDS pp pp pp
-6.8967690425342845e+00 6.8967690425342845e+00
-6.8967690425342845e+00 6.8967690425342845e+00
-6.8967690425342845e+00 6.8967690425342845e+00
ITEM: ATOMS id mol type x y z 
2 1 1 -6.01255 -2.66454e-15 -2.66454e-15 
3 1 1 -5.07545 -2.66454e-15 -2.66454e-15 
4 1 1 -4.26221 -2.66454e-15 -2.66454e-15 
5 1 1 -3.41764 -2.66454e-15 -2.66454e-15 
15 1 1 5.16168 -2.66454e-15 -2.66454e-15 
1 1 1 6.8682 -2.66454e-15 -2.66454e-15 
16 1 1 6.01461 -2.66454e-15 -2.66454e-15 
ITEM: TIMESTEP
70000
ITEM: NUMBER OF ATOMS
7
ITEM: BOX BOUNDS pp pp pp
-6.8451061289160977e+00 6.8451061289160977e+00
-6.8451061289160977e+00 6.8451061289160977e+00
-6.8451061289160977e+00 6.8451061289160977e+00
ITEM: ATOMS id mol type x y z 
2 1 1 -5.96603 -2.66454e-15 -2.66454e-15 
3 1 1 -5.091 -2.66454e-15 -2.66454e-15 
4 1 1 -4.24556 -2.66454e-15 -2.66454e-15 
5 1 1 -3.41318 -2.66454e-15 -2.66454e-15 
15 1 1 5.13632 -2.66454e-15 -2.66454e-15 
1 1 1 -6.80709 -2.66454e-15 -2.66454e-15 
16 1 1 6.0192 -2.66454e-15 -2.66454e-15 
ITEM: TIMESTEP
80000
ITEM: NUMBER OF ATOMS
7
ITEM: BOX BOUNDS pp pp pp
-6.8869656854411598e+00 6.8869656854411598e+00
-6.8869656854411598e+00 6.8869656854411598e+00
-6.8869656854411598e+00 6.8869656854411598e+00
ITEM: ATOMS id mol type x y z 
2 1 1 -6.03396 -2.66454e-15 -2.66454e-15 
3 1 1 -5.15571 -2.66454e-15 -2.66454e-15 
4 1 1 -4.31 -2.66454e-15 -2.66454e-15 
5 1 1 -3.44115 -2.66454e-15 -2.66454e-15 
15 1 1 5.16261 -2.66454e-15 -2.66454e-15 
1 1 1 -6.87726 -2.66454e-15 -2.66454e-15 
16 1 1 6.01558 -2.66454e-15 -2.66454e-15 
ITEM: TIMESTEP
90000
ITEM: NUMBER OF ATOMS
7
ITEM: BOX BOUNDS pp pp pp
-6.8568035274928869e+00 6.8568035274928869e+00
-6.8568035274928869e+00 6.8568035274928869e+00
-6.8568035274928869e+00 6.8568035274928869e+00
ITEM: ATOMS id mol type x y z 
2 1 1 -6.01195 -2.66454e-15 -2.66454e-15 
3 1 1 -5.12386 -2.66454e-15 -2.66454e-15 
4 1 1 -4.28059 -2.66454e-15 -2.66454e-15 
5 1 1 -3.40264 -2.66454e-15 -2.66454e-15 
15 1 1 5.09712 -2.66454e-15 -2.66454e-15 
1 1 1 6.84269 -2.66454e-15 -2.66454e-15 
16 1 1 5.98313 -2.66454e-15 -2.66454e-15 
ITEM: TIMESTEP
100000
ITEM: NUMBER OF ATOMS
7
ITEM: BOX BOUNDS pp pp pp
-6.8385524167686391e+00 6.8385524167686391e+00
-6.8385524167686391e+00 6.8385524167686391e+00
-6.8385524167686391e+00 6.8385524167686391e+00
ITEM: ATOMS id mol type x y z 
2 1 1 -5.97425 -2.66454e-15 -2.66454e-15 
3 1 1 -5.12884 -2.66454e-15 -2.66454e-15 
4 1 1 -4.24536 -2.66454e-15 -2.66454e-15 
5 1 1 -3.40779 -2.66454e-15 -2.66454e-15 
15 1 1 5.10488 -2.66454e-15 -2.66454e-15 
1 1 1 6.79292 -2.66454e-15 -2.66454e-15 
16 1 1 5.95494 -2.66454e-15 -2.66454e-15 
ITEM: TIMESTEP
110000
ITEM: NUMBER OF ATOMS
7
ITEM: BOX BOUNDS pp pp pp
-6.8949930938199389e+00 6.8949930938199389e+00
-6.8949930938199389e+00 6.8949930938199389e+00
-6.8949930938199389e+00 6.8949930938199389e+00
ITEM: ATOMS id mol type x y z 
2 1 1 -5.99699 -2.66454e-15 -2.66454e-15 
1 1 1 -6.82663 -2.66454e-15 -2.66454e-15 
3 1 1 -5.10902 -2.66454e-15 -2.66454e-15 
4 1 1 -4.27873 -2.66454e-15 -2.66454e-15 
5 1 1 -3.45029 -2.66454e-15 -2.66454e-15 
15 1 1 5.18759 -2.66454e-15 -2.66454e-15 
16 1 1 6.05955 -2.66454e-15 -2.66454e-15 
ITEM: TIMESTEP
120000
ITEM: NUMBER OF ATOMS
7
ITEM: BOX BOUNDS pp pp pp
-6.8392970420437909e+00 6.8392970420437909e+00
-6.8392970420437909e+00 6.8392970420437909e+00
-6.8392970420437909e+00 6.8392970420437909e+00
ITEM: ATOMS id mol type x y z 
2 1 1 -6.00539 -2.66454e-15 -2.66454e-15 
3 1 1 -5.16429 -2.66454e-15 -2.66454e-15 
4 1 1 -4.29311 -2.66454e-15 -2.66454e-15 
5 1 1 -3.46511 -2.66454e-15 -2.66454e-15 
15 1 1 5.11949 -2.66454e-15 -2.66454e-15 
1 1 1 -6.83462 -2.66454e-15 -2.66454e-15 
16 1 1 6.00452 -2.66454e-15 -2.66454e-15 
ITEM: TIMESTEP
130000
ITEM: NUMBER OF ATOMS
7
ITEM: BOX BOUNDS pp pp pp
-6.9090839739784453e+00 6.9090839739784453e+00
-6.9090839739784453e+00 6.9090839739784453e+00
-6.9090839739784453e+00 6.9090839739784453e+00
ITEM: ATOMS id mol type x y z 
2 1 1 -6.09478 -2.66454e-15 -2.66454e-15 
3 1 1 -5.19625 -2.66454e-15 -2.66454e-15 
4 1 1 -4.25679 -2.66454e-15 -2.66454e-15 
5 1 1 -3.3689 -2.66454e-15 -2.66454e-15 
15 1 1 5.14854 -2.66454e-15 -2.66454e-15 
1 1 1 6.84301 -2.66454e-15 -2.66454e-15 
16 1 1 5.98664 -2.66454e-15 -2.66454e-15 
ITEM: TIMESTEP
140000
ITEM: NUMBER OF ATOMS
7
ITEM: BOX BOUNDS pp pp pp
-6.8499398719409834e+00 6.8499398719409834e+00
-6.8499398719409834e+00 6.8499398719409834e+00
-6.8499398719409834e+00 6.8499398719409834e+00
ITEM: ATOMS id mol type x y z 
2 1 1 -6.04661 -2.66454e-15 -2.66454e-15 
3 1 1 -5.16877 -2.66454e-15 -2.66454e-15 
4 1 1 -4.28994 -2.66454e-15 -2.66454e-15 
5 1 1 -3.39857 -2.66454e-15 -2.66454e-15 
15 1 1 5.12892 -2.66454e-15 -2.66454e-15 
1 1 1 6.80826 -2.66454e-15 -2.66454e-15 
16 1 1 5.98443 -2.66454e-15 -2.66454e-15 
ITEM: TIMESTEP
150000
ITEM: NUMBER OF ATOMS
7
ITEM: BOX BOUNDS pp pp pp
-6.8705966428518330e+00 6.8705966428518330e+00
-6.8705966428518330e+00 6.8705966428518330e+00
-6.8705966428518330e+00 6.8705966428518330e+00
ITEM: ATOMS id mol type x y z 
2 1 1 -6.00491 -2.66454e-15 -2.66454e-15 
3 1 1 -5.14556 -2.66454e-15 -2.66454e-15 
4 1 1 -4.33219 -2.66454e-15 -2.66454e-15 
5 1 1 -3.43138 -2.66454e-15 -2.66454e-15 
15 1 1 5.20594 -2.66454e-15 -2.66454e-15 
1 1 1 6.85793 -2.66454e-15 -2.66454e-15 
16 1 1 6.04695 -2.66454e-15 -2.66454e-15 
ITEM: TIMESTEP
160000
ITEM: NUMBER OF ATOMS
7
ITEM: BOX BOUNDS pp pp pp
-6.8845083031698691e+00 6.8845083031698691e+00
-6.8845083031698691e+00 6.8845083031698691e+00
-6.8845083031698691e+00 6.8845083031698691e+00
ITEM: ATOMS id mol type x y z 
2 1 1 -6.00261 -2.66454e-15 -2.66454e-15 
3 1 1 -5.09509 -2.66454e-15 -2.66454e-15 
4 1 1 -4.18837 -2.66454e-15 -2.66454e-15 
5 1 1 -3.33893 -2.66454e-15 -2.66454e-15 
15 1 1 5.12299 -2.66454e-15 -2.66454e-15 
1 1 1 6.86495 -2.66454e-15 -2.66454e-15 
16 1 1 5.96181 -2.66454e-15 -2.66454e-15 
ITEM: TIMESTEP
170000
ITEM: NUMBER OF ATOMS
7
ITEM: BOX BOUNDS pp pp pp
-6.8854496734012809e+00 6.8854496734012809e+00
-6.8854496734012809e+00 6.8854496734012809e+00
-6.8854496734012809e+00 6.8854496734012809e+00
ITEM: ATOMS id mol type x y z 
2 1 1 -5.99773 -2.66454e-15 -2.66454e-15 
1 1 1 6.9095 -2.66454e-15 -2.66454e-15 
3 1 1 -5.18533 -2.66454e-15 -2.66454e-15 
4 1 1 -4.30458 -2.66454e-15 -2.66454e-15 
5 1 1 -3.45362 -2.66454e-15 -2.66454e-15 
15 1 1 5.20357 -2.66454e-15 -2.66454e-15 
16 1 1 6.06696 -2.66454e-15 -2.66454e-15 
ITEM: TIMESTEP
180000
ITEM: NUMBER OF ATOMS
7
ITEM: BOX BOUNDS pp pp pp
-6.8628022725465723e+00 6.8628022725465723e+00
-6.8628022725465723e+00 6.8628022725465723e+00
-6.8628022725465723e+00 6.8628022725465723e+00
ITEM: ATOMS id mol type x y z 
2 1 1 -5.98419 -2.66454e-15 -2.66454e-15 
3 1 1 -5.11951 -2.66454e-15 -2.66454e-15 
4 1 1 -4.24792 -2.66454e-15 -2.66454e-15 
5 1 1 -3.39592 -2.66454e-15 -2.66454e-15 
15 1 1 5.14814 -2.66454e-15 -2.66454e-15 
1 1 1 -6.85845 -2.66454e-15 -2.66454e-15 
16 1 1 5.97975 -2.66454e-15 -2.66454e-15 
ITEM: TIMESTEP
190000
ITEM: NUMBER OF ATOMS
7
ITEM: BOX BOUNDS pp pp pp
-6.8957525348548394e+00 6.8957525348548394e+00
-6.8957525348548394e+00 6.8957525348548394e+00
-6.8957525348548394e+00 6.8957525348548394e+00
ITEM: ATOMS id mol type x y z 
2 1 1 -6.04637 -2.66454e-15 -2.66454e-15 
3 1 1 -5.18617 -2.66454e-15 -2.66454e-15 
4 1 1 -4.30635 -2.66454e-15 -2.66454e-15 
5 1 1 -3.39984 -2.66454e-15 -2.66454e-15 
15 1 1 5.16975 -2.66454e-15 -2.66454e-15 
1 1 1 6.86942 -2.66454e-15 -2.66454e-15 
16 1 1 5.99315 -2.66454e-15 -2.66454e-15 
ITEM: TIMESTEP
200000
ITEM: NUMBER OF ATOMS
7
ITEM: BOX BOUNDS pp pp pp
-6.8548924912022127e+00 6.8548924912022127e+00
-6.8548924912022127e+00 6.8548924912022127e+00
-6.8548924912022127e+00 6.8548924912022127e+00
ITEM: ATOMS id mol type x y z 
2 1 1 -5.98762 -2.66454e-15 -2.66454e-15 
3 1 1 -5.15435 -2.66454e-15 -2.66454e-15 
4 1 1 -4.30744 -2.66454e-15 -2.66454e-15 
5 1 1 -3.47591 -2.66454e-15 -2.66454e-15 
15 1 1 5.16861 -2.66454e-15 -2.66454e-15 
1 1 1 6.83105 -2.66454e-15 -2.66454e-15 
16 1 1 6.01907 -2.66454e-15 -2.66454e-15 
ITEM: TIMESTEP
210000
ITEM: NUMBER OF ATOMS
7
ITEM: BOX BOUNDS pp pp pp
-6.8577959862611202e+00 6.8577959862611202e+00
-6.8577959862611202e+00 6.8577959862611202e+00
-6.8577959862611202e+00 6.8577959862611202e+00
ITEM: ATOMS id mol type x y z 
2 1 1 -6.01326 -2.66454e-15 -2.66454e-15 
3 1 1 -5.12067 -2.66454e-15 -2.66454e-15 
4 1 1 -4.27334 -2.66454e-15 -2.66454e-15 
5 1 1 -3.43149 -2.66454e-15 -2.66454e-15 
15 1 1 5.0934 -2.66454e-15 -2.66454e-15 
1 1 1 -6.90796 -2.66454e-15 -2.66454e-15 
16 1 1 5.93933 -2.66454e-15 -2.66454e-15 
ITEM: TIMESTEP
220000
ITEM: NUMBER OF ATOMS
7
ITEM: BOX BOUNDS pp pp pp
-6.9318505816800782e+00 6.9318505816800782e+00
-6.9318505816800782e+00 6.9318505816800782e+00
-6.9318505816800782e+00 6.9318505816800782e+00
ITEM: ATOMS id mol type x y z 
2 1 1 -6.11658 -2.66454e-15 -2.66454e-15 
1 1 1 6.88598 -2.66454e-15 -2.66454e-15 
3 1 1 -5.2261 -2.66454e-15 -2.66454e-15 
4 1 1 -4.38772 -2.66454e-15 -2.66454e-15 
5 1 1 -3.48165 -2.66454e-15 -2.66454e-15 
15 1 1 5.20599 -2.66454e-15 -2.66454e-15 
16 1 1 6.04959 -2.66454e-15 -2.66454e-15 
ITEM: TIMESTEP
230000
ITEM: NUMBER OF ATOMS
7
ITEM: BOX BOUNDS pp pp pp
-6.8418701159113349e+00 6.8418701159113349e+00
-6.8418701159113349e+00 6.8418701159113349e+00
-6.8418701159113349e+00 6.8418701159113349e+00
ITEM: ATOMS id mol type x y z 
2 1 1 -6.01244 -2.66454e-15 -2.66454e-15 
1 1 1 6.84288 -2.66454e-15 -2.66454e-15 
3 1 1 -5.15723 -2.66454e-15 -2.66454e-15 
4 1 1 -4.32134 -2.66454e-15 -2.66454e-15 
5 1 1 -3.39864 -2.66454e-15 -2.66454e-15 
15 1 1 5.11896 -2.66454e-15 -2.66454e-15 
16 1 1 5.97838 -2.66454e-15 -2.66454e-15 
ITEM: TIMESTEP
240000
ITEM: NUMBER OF ATOMS
7
ITEM: BOX BOUNDS pp pp pp
-6.9045729219583745e+00 6.9045729219583745e+00
-6.9045729219583745e+00 6.9045729219583745e+00
-6.9045729219583745e+00 6.9045729219583745e+00
ITEM: ATOMS id mol type x y z 
2 1 1 -6.04821 -2.66454e-15 -2.66454e-15 
3 1 1 -5.20319 -2.66454e-15 -2.66454e-15 
4 1 1 -4.33583 -2.66454e-15 -2.66454e-15 
5 1 1 -3.43888 -2.66454e-15 -2.66454e-15 
15 1 1 5.11639 -2.66454e-15 -2.66454e-15 
1 1 1 6.89224 -2.66454e-15 -2.66454e-15 
16 1 1 6.00934 -2.66454e-15 -2.66454e-15 
ITEM: TIMESTEP
250000
ITEM: NUMBER OF ATOMS
7
ITEM: BOX BOUNDS pp pp pp
-6.8819542768898181e+00 6.8819542768898181e+00
-6.8819542768898181e+00 6.8819542768898181e+00
-6.8819542768898181e+00 6.8819542768898181e+00
ITEM: ATOMS id mol type x y z 
2 1 1 -6.02109 -2.66454e-15 -2.66454e-15 
3 1 1 -5.15545 -2.66454e-15 -2.66454e-15 
4 1 1 -4.28774 -2.66454e-15 -2.66454e-15 
5 1 1 -3.41667 -2.66454e-15 -2.66454e-15 
15 1 1 5.2031 -2.66454e-15 -2.66454e-15 
1 1 1 -6.85555 -2.66454e-15 -2.66454e-15 
16 1 1 6.05195 -2.66454e-15 -2.66454e-15 
ITEM: TIMESTEP
260000
ITEM: NUMBER OF ATOMS
7
ITEM: BOX BOUNDS pp pp pp
-6.9335263620709311e+00 6.9335263620709311e+00
-6.9335263620709311e+00 6.9335263620709311e+00
-6.9335263620709311e+00 6.9335263620709311e+00
ITEM: ATOMS id mol type x y z 
2 1 1 -6.06734 -2.66454e-15 -2.66454e-15 
3 1 1 -5.17453 -2.66454e-15 -2.66454e-15 
4 1 1 -4.26176 -2.66454e-15 -2.66454e-15 
5 1 1 -3.42922 -2.66454e-15 -2.66454e-15 
15 1 1 5.19104 -2.66454e-15 -2.66454e-15 
1 1 1 6.89067 -2.66454e-15 -2.66454e-15 
16 1 1 6.01985 -2.66454e-15 -2.66454e-15 
ITEM: TIMESTEP
270000
ITEM: NUMBER OF ATOMS
7
ITEM: BOX BOUNDS pp pp pp
-6.8747366217991894e+00 6.8747366217991894e+00
-6.8747366217991894e+00 6.8747366217991894e+00
-6.8747366217991894e+00 6.8747366217991894e+00
ITEM: ATOMS id mol type x y z 
2 1 1 -5.99447 -2.66454e-15 -2.66454e-15 
3 1 1 -5.16708 -2.66454e-15 -2.66454e-15 
4 1 1 -4.27563 -2.66454e-15 -2.66454e-15 
5 1 1 -3.44562 -2.66454e-15 -2.66454e-15 
15 1 1 5.16579 -2.66454e-15 -2.66454e-15 
1 1 1 6.90134 -2.66454e-15 -2.66454e-15 
16 1 1 6.0245 -2.66454e-15 -2.66454e-15 
ITEM: TIMESTEP
280000
ITEM: NUMBER OF ATOMS
7
ITEM: BOX BOUNDS pp pp pp
-6.8722737056862977e+00 6.8722737056862977e+00
-6.8722737056862977e+00 6.8722737056862977e+00
-6.8722737056862977e+00 6.8722737056862977e+00
ITEM: ATOMS id mol type x y z 
2 1 1 -5.99534 -2.66454e-15 -2.66454e-15 
3 1 1 -5.16387 -2.66454e-15 -2.66454e-15 
4 1 1 -4.30534 -2.66454e-15 -2.66454e-15 
5 1 1 -3.45357 -2.66454e-15 -2.66454e-15 
15 1 1 5.14741 -2.66454e-15 -2.66454e-15 
1 1 1 -6.88877 -2.66454e-15 -2.66454e-15 
16 1 1 5.99385 -2.66454e-15 -2.66454e-15 
ITEM: TIMESTEP
290000
ITEM: NUMBER OF ATOMS
7
ITEM: BOX BOUNDS pp pp pp
-6.8667766490574493e+00 6.8667766490574493e+00
-6.8667766490574493e+00 6.8667766490574493e+00
-6.8667766490574493e+00 6.8667766490574493e+00
ITEM: ATOMS id mol type x y z 
2 1 1 -6.00959 -2.66454e-15 -2.66454e-15 
3 1 1 -5.16877 -2.66454e-15 -2.66454e-15 
4 1 1 -4.30215 -2.66454e-15 -2.66454e-15 
5 1 1 -3.43593 -2.66454e-15 -2.66454e-15 
15 1 1 5.14582 -2.66454e-15 -2.66454e-15 
1 1 1 6.87101 -2.66454e-15 -2.66454e-15 
16 1 1 5.98315 -2.66454e-15 -2.66454e-15 
ITEM: TIMESTEP
300000
ITEM: NUMBER OF ATOMS
7
ITEM: BOX BOUNDS pp pp pp
-6.8718646431644226e+00 6.8718646431644226e+00
-6.8718646431644226e+00 6.8718646431644226e+00
-6.8718646431644226e+00 6.8718646431644226e+00
ITEM: ATOMS id mol type x y z 
2 1 1 -6.03623 -2.66454e-15 -2.66454e-15 
1 1 1 6.88375 -2.66454e-15 -2.66454e-15 
3 1 1 -5.11379 -2.66454e-15 -2.66454e-15 
4 1 1 -4.28815 -2.66454e-15 -2.66454e-15 
5 1 1 -3.43307 -2.66454e-15 -2.66454e-15 
15 1 1 5.17284 -2.66454e-15 -2.66454e-15 
16 1 1 6.03482 -2.66454e-15 -2.66454e-15 
ITEM: TIMESTEP
310000
ITEM: NUMBER OF ATOMS
7
ITEM: BOX BOUNDS pp pp pp
-6.8581899791262835e+00 6.8581899791262835e+00
-6.8581899791262835e+00 6.8581899791262835e+00
-6.8581899791262835e+00 6.8581899791262835e+00
ITEM: ATOMS id mol type x y z 
2 1 1 -5.95321 -2.66454e-15 -2.66454e-15 
3 1 1 -5.14872 -2.66454e-15 -2.66454e-15 
4 1 1 -4.25859 -2.66454e-15 -2.66454e-15 
5 1 1 -3.41138 -2.66454e-15 -2.66454e-15 
15 1 1 5.13361 -2.66454e-15 -2.66454e-15 
1 1 1 6.89797 -2.66454e-15 -2.66454e-15 
16 1 1 6.02444 -2.66454e-15 -2.66454e-15 
ITEM: TIMESTEP
320000
ITEM: NUMBER OF ATOMS
7
ITEM: BOX BOUNDS pp pp pp
-6.8754229302622241e+00 6.8754229302622241e+00
-6.8754229302622241e+00 6.8754229302622241e+00
-6.8754229302622241e+00 6.8754229302622241e+00
ITEM: ATOMS id mol type x y z 
2 1 1 -6.03699 -2.66454e-15 -2.66454e-15 
1 1 1 -6.88721 -2.66454e-15 -2.66454e-15 
3 1 1 -5.12295 -2.66454e-15 -2.66454e-15 
4 1 1 -4.28048 -2.66454e-15 -2.66454e-15 
5 1 1 -3.41634 -2.66454e-15 -2.66454e-15 
15 1 1 5.13686 -2.66454e-15 -2.66454e-15 
16 1 1 5.9907 -2.66454e-15 -2.66454e-15 
ITEM: TIMESTEP
330000
ITEM: NUMBER OF ATOMS
7
ITEM: BOX BOUNDS pp pp pp
-6.8743250220682484e+00 6.8743250220682484e+00
-6.8743250220682484e+00 6.8743250220682484e+00
-6.8743250220682484e+00 6.8743250220682484e+00
ITEM: ATOMS id mol type x y z 
2 1 1 -6.02559 -2.66454e-15 -2.66454e-15 
1 1 1 6.8684 -2.66454e-15 -2.66454e-15 
3 1 1 -5.15131 -2.66454e-15 -2.66454e-15 
4 1 1 -4.283 -2.66454e-15 -2.66454e-15 
5 1 1 -3.47377 -2.66454e-15 -2.66454e-15 
15 1 1 5.12197 -2.66454e-15 -2.66454e-15 
16 1 1 6.01113 -2.66454e-15 -2.66454e-15 
ITEM: TIMESTEP
340000
ITEM: NUMBER OF ATOMS
7
ITEM: BOX BOUNDS pp pp pp
-6.8982703386630391e+00 6.8982703386630391e+00
-6.8982703386630391e+00 6.8982703386630391e+00
-6.8982703386630391e+00 6.8982703386630391e+00
ITEM: ATOMS id mol type x y z 
2 1 1 -6.03746 -2.66454e-15 -2.66454e-15 
1 1 1 -6.87838 -2.66454e-15 -2.66454e-15 
3 1 1 -5.20163 -2.66454e-15 -2.66454e-15 
4 1 1 -4.35417 -2.66454e-15 -2.66454e-15 
5 1 1 -3.44705 -2.66454e-15 -2.66454e-15 
15 1 1 5.20244 -2.66454e-15 -2.66454e-15 
16 1 1 6.06793 -2.66454e-15 -2.66454e-15 
ITEM: TIMESTEP
350000
ITEM: NUMBER OF ATOMS
7
ITEM: BOX BOUNDS pp pp pp
-6.8482258754057721e+00 6.8482258754057721e+00
-6.8482258754057721e+00 6.8482258754057721e+00
-6.8482258754057721e+00 6.8482258754057721e+00
ITEM: ATOMS id mol type x y z 
2 1 1 -6.00545 -2.66454e-15 -2.66454e-15 
3 1 1 -5.13875 -2.66454e-15 -2.66454e-15 
4 1 1 -4.2692 -2.66454e-15 -2.66454e-15 
5 1 1 -3.40698 -2.66454e-15 -2.66454e-15 
15 1 1 5.11786 -2.66454e-15 -2.66454e-15 
1 1 1 6.84333 -2.66454e-15 -2.66454e-15 
16 1 1 5.98305 -2.66454e-15 -2.66454e-15 
ITEM: TIMESTEP
360000
ITEM: NUMBER OF ATOMS
7
ITEM: BOX BOUNDS pp pp pp
-6.8256733474485181e+00 6.8256733474485181e+00
-6.8256733474485181e+00 6.8256733474485181e+00
-6.8256733474485181e+00 6.8256733474485181e+00
ITEM: ATOMS id mol type x y z 
2 1 1 -5.92676 -2.66454e-15 -2.66454e-15 
3 1 1 -5.1108 -2.66454e-15 -2.66454e-15 
4 1 1 -4.28197 -2.66454e-15 -2.66454e-15 
5 1 1 -3.39665 -2.66454e-15 -2.66454e-15 
15 1 1 5.09518 -2.66454e-15 -2.66454e-15 
1 1 1 -6.78745 -2.66454e-15 -2.66454e-15 
16 1 1 5.99147 -2.66454e-15 -2.66454e-15 
ITEM: TIMESTEP
370000
ITEM: NUMBER OF ATOMS
7
ITEM: BOX BOUNDS pp pp pp
-6.8531389263891205e+00 6.8531389263891205e+00
-6.8531389263891205e+00 6.8531389263891205e+00
-6.8531389263891205e+00 6.8531389263891205e+00
ITEM: ATOMS id mol type x y z 
2 1 1 -5.97737 -2.66454e-15 -2.66454e-15 
1 1 1 6.9058 -2.66454e-15 -2.66454e-15 
3 1 1 -5.11123 -2.66454e-15 -2.66454e-15 
4 1 1 -4.2872 -2.66454e-15 -2.66454e-15 
5 1 1 -3.4555 -2.66454e-15 -2.66454e-15 
15 1 1 5.15335 -2.66454e-15 -2.66454e-15 
16 1 1 6.01144 -2.66454e-15 -2.66454e-15 
ITEM: TIMESTEP
380000
ITEM: NUMBER OF ATOMS
7
ITEM: BOX BOUNDS pp pp pp
-6.8808626571602964e+00 6.8808626571602964e+00
-6.8808626571602964e+00 6.8808626571602964e+00
-6.8808626571602964e+00 6.8808626571602964e+00
ITEM: ATOMS id mol type x y z 
2 1 1 -6.00297 -2.66454e-15 -2.66454e-15 
3 1 1 -5.09576 -2.66454e-15 -2.66454e-15 
4 1 1 -4.25539 -2.66454e-15 -2.66454e-15 
5 1 1 -3.40408 -2.66454e-15 -2.66454e-15 
15 1 1 5.14204 -2.66454e-15 -2.66454e-15 
1 1 1 6.88048 -2.66454e-15 -2.66454e-15 
16 1 1 5.99849 -2.66454e-15 -2.66454e-15 
ITEM: TIMESTEP
390000
ITEM: NUMBER OF ATOMS
7
ITEM: BOX BOUNDS pp pp pp
-6.8842600978133097e+00 6.8842600978133097e+00
-6.8842600978133097e+00 6.8842600978133097e+00
-6.8842600978133097e+00 6.8842600978133097e+00
ITEM: ATOMS id mol type x y z 
2 1 1 -5.98572 -2.66454e-15 -2.66454e-15 
1 1 1 6.89766 -2.66454e-15 -2.66454e-15 
3 1 1 -5.10796 -2.66454e-15 -2.66454e-15 
4 1 1 -4.24429 -2.66454e-15 -2.66454e-15 
5 1 1 -3.38696 -2.66454e-15 -2.66454e-15 
15 1 1 5.11371 -2.66454e-15 -2.66454e-15 
16 1 1 5.98447 -2.66454e-15 -2.66454e-15 
ITEM: TIMESTEP
400000
ITEM: NUMBER OF ATOMS
7
ITEM: BOX BOUNDS pp pp pp
-6.8912790488372844e+00 6.8912790488372844e+00
-6.8912790488372844e+00 6.8912790488372844e+00
-6.8912790488372844e+00 6.8912790488372844e+00
ITEM: ATOMS id mol type x y z 
2 1 1 -6.00478 -2.66454e-15 -2.66454e-15 
3 1 1 -5.16277 -2.66454e-15 -2.66454e-15 
4 1 1 -4.26544 -2.66454e-15 -2.66454e-15 
5 1 1 -3.39705 -2.66454e-15 -2.66454e-15 
15 1 1 5.08618 -2.66454e-15 -2.66454e-15 
1 1 1 6.85221 -2.66454e-15 -2.66454e-15 
16 1 1 5.96173 -2.66454e-15 -2.66454e-15 
ITEM: TIMESTEP
410000
ITEM: NUMBER OF ATOMS
7
ITEM: BOX BOUNDS pp pp pp
-6.9009041845109733e+00 6.9009041845109733e+00
-6.9009041845109733e+00 6.9009041845109733e+00
-6.9009041845109733e+00 6.9009041845109733e+00
ITEM: ATOMS id mol type x y z 
2 1 1 -6.06995 -2.66454e-15 -2.66454e-15 
3 1 1 -5.22627 -2.66454e-15 -2.66454e-15 
4 1 1 -4.34327 -2.66454e-15 -2.66454e-15 
5 1 1 -3.4843 -2.66454e-15 -2.66454e-15 
15 1 1 5.13568 -2.66454e-15 -2.66454e-15 
1 1 1 6.88065 -2.66454e-15 -2.66454e-15 
16 1 1 5.98087 -2.66454e-15 -2.66454e-15 
ITEM: TIMESTEP
420000
ITEM: NUMBER OF ATOMS
7
ITEM: BOX BOUNDS pp pp pp
-6.8450188714212317e+00 6.8450188714212317e+00
-6.8450188714212317e+00 6.8450188714212317e+00
-6.8450188714212317e+00 6.8450188714212317e+00
ITEM: ATOMS id mol type x y z 
2 1 1 -5.97629 -2.66454e-15 -2.66454e-15 
3 1 1 -5.12827 -2.66454e-15 -2.66454e-15 
4 1 1 -4.23114 -2.66454e-15 -2.66454e-15 
5 1 1 -3.39083 -2.66454e-15 -2.66454e-15 
15 1 1 5.1118 -2.66454e-15 -2.66454e-15 
1 1 1 6.80547 -2.66454e-15 -2.66454e-15 
16 1 1 5.93089 -2.66454e-15 -2.66454e-15 
ITEM: TIMESTEP
430000
ITEM: NUMBER OF ATOMS
7
ITEM: BOX BOUNDS pp pp pp
-6.8474859705766988e+00 6.8474859705766988e+00
-6.8474859705766988e+00 6.8474859705766988e+00
-6.8474859705766988e+00 6.8474859705766988e+00
ITEM: ATOMS id mol type x y z 
2 1 1 -6.009 -2.66454e-15 -2.66454e-15 
1 1 1 -6.86687 -2.66454e-15 -2.66454e-15 
3 1 1 -5.16133 -2.66454e-15 -2.66454e-15 
4 1 1 -4.28234 -2.66454e-15 -2.66454e-15 
5 1 1 -3.43229 -2.66454e-15 -2.66454e-15 
15 1 1 5.18868 -2.66454e-15 -2.66454e-15 
16 1 1 6.01302 -2.66454e-15 -2.66454e-15 
ITEM: TIMESTEP
440000
ITEM: NUMBER OF ATOMS
7
ITEM: BOX BOUNDS pp pp pp
-6.8883105796679409e+00 6.8883105796679409e+00
-6.8883105796679409e+00 6.8883105796679409e+00
-6.8883105796679409e+00 6.8883105796679409e+00
ITEM: ATOMS id mol type x y z 
2 1 1 -6.06956 -2.66454e-15 -2.66454e-15 
3 1 1 -5.18194 -2.66454e-15 -2.66454e-15 
4 1 1 -4.28427 -2.66454e-15 -2.66454e-15 
5 1 1 -3.3982 -2.66454e-15 -2.66454e-15 
15 1 1 5.14333 -2.66454e-15 -2.66454e-15 
1 1 1 6.85992 -2.66454e-15 -2.66454e-15 
16 1 1 5.99915 -2.66454e-15 -2.66454e-15 
ITEM: TIMESTEP
450000
ITEM: NUMBER OF ATOMS
7
ITEM: BOX BOUNDS pp pp pp
-6.8370678639991747e+00 6.8370678639991747e+00
-6.8370678639991747e+00 6.8370678639991747e+00
-6.8370678639991747e+00 6.8370678639991747e+00
ITEM: ATOMS id mol type x y z 
2 1 1 -6.04236 -2.66454e-15 -2.66454e-15 
3 1 1 -5.17855 -2.66454e-15 -2.66454e-15 
4 1 1 -4.30213 -2.66454e-15 -2.66454e-15 
5 1 1 -3.41893 -2.66454e-15 -2.66454e-15 
15 1 1 5.13133 -2.66454e-15 -2.66454e-15 
1 1 1 6.79093 -2.66454e-15 -2.66454e-15 
16 1 1 5.96496 -2.66454e-15 -2.66454e-15 
ITEM: TIMESTEP
460000
ITEM: NUMBER OF ATOMS
7
ITEM: BOX BOUNDS pp pp pp
-6.8858085090669308e+00 6.8858085090669308e+00
-6.8858085090669308e+00 6.8858085090669308e+00
-6.8858085090669308e+00 6.8858085090669308e+00
ITEM: ATOMS id mol type x y z 
2 1 1 -5.97168 -2.66454e-15 -2.66454e-15 
3 1 1 -5.09791 -2.66454e-15 -2.66454e-15 
4 1 1 -4.21998 -2.66454e-15 -2.66454e-15 
5 1 1 -3.37444 -2.66454e-15 -2.66454e-15 
15 1 1 5.09349 -2.66454e-15 -2.66454e-15 
1 1 1 -6.83812 -2.66454e-15 -2.66454e-15 
16 1 1 6.03258 -2.66454e-15 -2.66454e-15 
ITEM: TIMESTEP
470000
ITEM: NUMBER OF ATOMS
7
ITEM: BOX BOUNDS pp pp pp
-6.9281777288896027e+00 6.9281777288896027e+00
-6.9281777288896027e+00 6.9281777288896027e+00
-6.9281777288896027e+00 6.9281777288896027e+00
ITEM: ATOMS id mol type x y z 
2 1 1 -6.05157 -2.66454e-15 -2.66454e-15 
1 1 1 -6.93401 -2.66454e-15 -2.66454e-15 
3 1 1 -5.18708 -2.66454e-15 -2.66454e-15 
4 1 1 -4.33541 -2.66454e-15 -2.66454e-15 
5 1 1 -3.46513 -2.66454e-15 -2.66454e-15 
15 1 1 5.22371 -2.66454e-15 -2.66454e-15 
16 1 1 6.06988 -2.66454e-15 -2.66454e-15 
ITEM: TIMESTEP
480000
ITEM: NUMBER OF ATOMS
7
ITEM: BOX BOUNDS pp pp pp
-6.8419677278416140e+00 6.8419677278416140e+00
-6.8419677278416140e+00 6.8419677278416140e+00
-6.8419677278416140e+00 6.8419677278416140e+00
ITEM: ATOMS id mol type x y z 
2 1 1 -5.9785 -2.66454e-15 -2.66454e-15 
1 1 1 -6.85761 -2.66454e-15 -2.66454e-15 
3 1 1 -5.11432 -2.66454e-15 -2.66454e-15 
4 1 1 -4.27793 -2.66454e-15 -2.66454e-15 
5 1 1 -3.43353 -2.66454e-15 -2.66454e-15 
15 1 1 5.12219 -2.66454e-15 -2.66454e-15 
16 1 1 5.95779 -2.66454e-15 -2.66454e-15 
ITEM: TIMESTEP
490000
ITEM: NUMBER OF ATOMS
7
ITEM: BOX BOUNDS pp pp pp
-6.8626782592291811e+00 6.8626782592291811e+00
-6.8626782592291811e+00 6.8626782592291811e+00
-6.8626782592291811e+00 6.8626782592291811e+00
ITEM: ATOMS id mol type x y z 
2 1 1 -6.06705 -2.66454e-15 -2.66454e-15 
1 1 1 6.81983 -2.66454e-15 -2.66454e-15 
3 1 1 -5.21759 -2.66454e-15 -2.66454e-15 
4 1 1 -4.36041 -2.66454e-15 -2.66454e-15 
5 1 1 -3.47004 -2.66454e-15 -2.66454e-15 
15 1 1 5.11998 -2.66454e-15 -2.66454e-15 
16 1 1 5.97435 -2.66454e-15 -2.66454e-15 
ITEM: TIMESTEP
500000
ITEM: NUMBER OF ATOMS
7
ITEM: BOX BOUNDS pp pp pp
-6.8909835737804590e+00 6.8909835737804590e+00
-6.8909835737804590e+00 6.8909835737804590e+00
-6.8909835737804590e+00 6.8909835737804590e+00
ITEM: ATOMS id mol type x y z 
2 1 1 -6.04631 -2.66454e-15 -2.66454e-15 
3 1 1 -5.10218 -2.66454e-15 -2.66454e-15 
4 1 1 -4.23984 -2.66454e-15 -2.66454e-15 
5 1 1 -3.37412 -2.66454e-15 -2.66454e-15 
15 1 1 5.09013 -2.66454e-15 -2.66454e-15 
1 1 1 6.84333 -2.66454e-15 -2.66454e-15 
16 1 1 5.9699 -2.66454e-15 -2.66454e-15 
ITEM: TIMESTEP
510000
ITEM: NUMBER OF ATOMS
7
ITEM: BOX BOUNDS pp pp pp
-6.8242776024820868e+00 6.8242776024820868e+00
-6.8242776024820868e+00 6.8242776024820868e+00
-6.8242776024820868e+00 6.8242776024820868e+00
ITEM: ATOMS id mol type x y z 
2 1 1 -5.99369 -2.66454e-15 -2.66454e-15 
3 1 1 -5.13635 -2.66454e-15 -2.66454e-15 
4 1 1 -4.22195 -2.66454e-15 -2.66454e-15 
5 1 1 -3.36364 -2.66454e-15 -2.66454e-15 
15 1 1 5.08971 -2.66454e-15 -2.66454e-15 
1 1 1 6.8255 -2.66454e-15 -2.66454e-15 
16 1 1 5.93058 -2.66454e-15 -2.66454e-15 
ITEM: TIMESTEP
520000
ITEM: NUMBER OF ATOMS
7
ITEM: BOX BOUNDS pp pp pp
-6.9055977548237779e+00 6.9055977548237779e+00
-6.9055977548237779e+00 6.9055977548237779e+00
-6.9055977548237779e+00 6.9055977548237779e+00
ITEM: ATOMS id mol type x y z 
2 1 1 -6.06994 -2.66454e-15 -2.66454e-15 
3 1 1 -5.16927 -2.66454e-15 -2.66454e-15 
4 1 1 -4.33948 -2.66454e-15 -2.66454e-15 
5 1 1 -3.49718 -2.66454e-15 -2.66454e-15 
15 1 1 5.20079 -2.66454e-15 -2.66454e-15 
1 1 1 -6.91041 -2.66454e-15 -2.66454e-15 
16 1 1 6.06576 -2.66454e-15 -2.66454e-15 
ITEM: TIMESTEP
530000
ITEM: NUMBER OF ATOMS
7
ITEM: BOX BOUNDS pp pp pp
-6.8450648630618138e+00 6.8450648630618138e+00
-6.8450648630618138e+00 6.8450648630618138e+00
-6.8450648630618138e+00 6.8450648630618138e+00
ITEM: ATOMS id mol type x y z 
2 1 1 -6.03729 -2.66454e-15 -2.66454e-15 
3 1 1 -5.16535 -2.66454e-15 -2.66454e-15 
4 1 1 -4.2961 -2.66454e-15 -2.66454e-15 
5 1 1 -3.41313 -2.66454e-15 -2.66454e-15 
15 1 1 5.08248 -2.66454e-15 -2.66454e-15 
1 1 1 -6.90795 -2.66454e-15 -2.66454e-15 
16 1 1 5.95654 -2.66454e-15 -2.66454e-15 
ITEM: TIMESTEP
540000
ITEM: NUMBER OF ATOMS
7
ITEM: BOX BOUNDS pp pp pp
-6.8524586841938975e+00 6.8524586841938975e+00
-6.8524586841938975e+00 6.8524586841938975e+00
-6.8524586841938975e+00 6.8524586841938975e+00
ITEM: ATOMS id mol type x y z 
2 1 1 -5.99305 -2.66454e-15 -2.66454e-15 
1 1 1 6.83859 -2.66454e-15 -2.66454e-15 
3 1 1 -5.15611 -2.66454e-15 -2.66454e-15 
4 1 1 -4.24825 -2.66454e-15 -2.66454e-15 
5 1 1 -3.4092 -2.66454e-15 -2.66454e-15 
15 1 1 5.18635 -2.66454e-15 -2.66454e-15 
16 1 1 6.01004 -2.66454e-15 -2.66454e-15 
ITEM: TIMESTEP
550000
ITEM: NUMBER OF ATOMS
7
ITEM: BOX BOUNDS pp pp pp
-6.8879097957597208e+00 6.8879097957597208e+00
-6.8879097957597208e+00 6.8879097957597208e+00
-6.8879097957597208e+00 6.8879097957597208e+00
ITEM: ATOMS id mol type x y z 
2 1 1 -6.06895 -2.66454e-15 -2.66454e-15 
3 1 1 -5.17787 -2.66454e-15 -2.66454e-15 
4 1 1 -4.28647 -2.66454e-15 -2.66454e-15 
5 1 1 -3.42371 -2.66454e-15 -2.66454e-15 
15 1 1 5.12113 -2.66454e-15 -2.66454e-15 
1 1 1 6.82437 -2.66454e-15 -2.66454e-15 
16 1 1 5.9953 -2.66454e-15 -2.66454e-15 
ITEM: TIMESTEP
560000
ITEM: NUMBER OF ATOMS
7
ITEM: BOX BOUNDS pp pp pp
-6.8871043661047029e+00 6.8871043661047029e+00