ITEM: TIMESTEP
0
ITEM: NUMBER OF ATOMS
7
ITEM: BOX BOUNDS pp pp pp
-8.0000000000000000e+00 8.0000000000000000e+00
-8.0000000000000000e+00 8.0000000000000000e+00
-8.0000000000000000e+00 8.0000000000000000e+00
ITEM: ATOMS id mol type x y z 
1 1 1 -8 0 0 
2 1 1 -7 0 0 
3 1 1 -6 0 0 
4 1 1 -5 0 0 
5 1 1 -4 0 0 
15 1 1 6 0 0 
16 1 1 7 0 0 
ITEM: TIMESTEP
10000
ITEM: NUMBER OF ATOMS
7
ITEM: BOX BOUNDS pp pp pp
-6.8659392210110797e+00 6.8659392210110797e+00
-6.8659392210110797e+00 6.8659392210110797e+00
-6.8659392210110797e+00 6.8659392210110797e+00
ITEM: ATOMS id mol type x y z 
2 1 1 -6.0077 -2.66454e-15 -2.66454e-15 
1 1 1 -6.87115 -2.66454e-15 -2.66454e-15 
3 1 1 -5.14424 -2.66454e-15 -2.66454e-15 
4 1 1 -4.28485 -2.66454e-15 -2.66454e-15 
5 1 1 -3.40605 -2.66454e-15 -2.66454e-15 
15 1 1 5.12253 -2.66454e-15 -2.66454e-15 
16 1 1 6.00134 -2.66454e-15 -2.66454e-15 
ITEM: TIMESTEP
20000
ITEM: NUMBER OF ATOMS
7
ITEM: BOX BOUNDS pp pp pp
-6.8519329151976933e+00 6.8519329151976933e+00
-6.8519329151976933e+00 6.8519329151976933e+00
-6.8519329151976933e+00 6.8519329151976933e+00
ITEM: ATOMS id mol type x y z 
2 1 1 -5.99544 -2.66454e-15 -2.66454e-15 
1 1 1 -6.86966 -2.66454e-15 -2.66454e-15 
3 1 1 -5.12122 -2.66454e-15 -2.66454e-15 
4 1 1 -4.29947 -2.66454e-15 -2.66454e-15 
5 1 1 -3.46191 -2.66454e-15 -2.66454e-15 
15 1 1 5.17489 -2.66454e-15 -2.66454e-15 
16 1 1 6.01245 -2.66454e-15 -2.66454e-15 
ITEM: TIMESTEP
30000
ITEM: NUMBER OF ATOMS
7
ITEM: BOX BOUNDS pp pp pp
-6.8903467102497880e+00 6.8903467102497880e+00
-6.8903467102497880e+00 6.8903467102497880e+00
-6.8903467102497880e+00 6.8903467102497880e+00
ITEM: ATOMS id mol type x y z 
2 1 1 -6.02905 -2.66454e-15 -2.66454e-15 
3 1 1 -5.15862 -2.66454e-15 -2.66454e-15 
4 1 1 -4.30142 -2.66454e-15 -2.66454e-15 
5 1 1 -3.40354 -2.66454e-15 -2.66454e-15 
15 1 1 5.12613 -2.66454e-15 -2.66454e-15 
1 1 1 6.88121 -2.66454e-15 -2.66454e-15 
16 1 1 6.024 -2.66454e-15 -2.66454e-15 
ITEM: TIMESTEP
40000
ITEM: NUMBER OF ATOMS
7
ITEM: BOX BOUNDS pp pp pp
-6.8658135809053382e+00 6.8658135809053382e+00
-6.8658135809053382e+00 6.8658135809053382e+00
-6.8658135809053382e+00 6.8658135809053382e+00
ITEM: ATOMS id mol type x y z 
2 1 1 -6.00759 -2.66454e-15 -2.66454e-15 
3 1 1 -5.18768 -2.66454e-15 -2.66454e-15 
4 1 1 -4.33595 -2.66454e-15 -2.66454e-15 
5 1 1 -3.47981 -2.66454e-15 -2.66454e-15 
15 1 1 5.19627 -2.66454e-15 -2.66454e-15 
1 1 1 6.90414 -2.66454e-15 -2.66454e-15 
16 1 1 6.0524 -2.66454e-15 -2.66454e-15 
ITEM: TIMESTEP
50000
ITEM: NUMBER OF ATOMS
7
ITEM: BOX BOUNDS pp pp pp
-6.8801378325836966e+00 6.8801378325836966e+00
-6.8801378325836966e+00 6.8801378325836966e+00
-6.8801378325836966e+00 6.8801378325836966e+00
ITEM: ATOMS id mol type x y z 
2 1 1 -6.02012 -2.66454e-15 -2.66454e-15 
1 1 1 -6.88877 -2.66454e-15 -2.66454e-15 
3 1 1 -5.15147 -2.66454e-15 -2.66454e-15 
4 1 1 -4.27771 -2.66454e-15 -2.66454e-15 
5 1 1 -3.42494 -2.66454e-15 -2.66454e-15 
15 1 1 5.14497 -2.66454e-15 -2.66454e-15 
16 1 1 5.99774 -2.66454e-15 -2.66454e-15 
ITEM: TIMESTEP
60000
ITEM: NUMBER OF ATOMS
7
ITEM: BOX BOUNDS pp pp pp
-6.8609825530678901e+00 6.8609825530678901e+00
-6.8609825530678901e+00 6.8609825530678901e+00
-6.8609825530678901e+00 6.8609825530678901e+00
ITEM: ATOMS id mol type x y z 
2 1 1 -6.00336 -2.66454e-15 -2.66454e-15 
3 1 1 -5.17522 -2.66454e-15 -2.66454e-15 
4 1 1 -4.31812 -2.66454e-15 -2.66454e-15 
5 1 1 -3.46767 -2.66454e-15 -2.66454e-15 
15 1 1 5.18291 -2.66454e-15 -2.66454e-15 
1 1 1 6.89047 -2.66454e-15 -2.66454e-15 
16 1 1 6.03336 -2.66454e-15 -2.66454e-15 
ITEM: TIMESTEP
70000
ITEM: NUMBER OF ATOMS
7
ITEM: BOX BOUNDS pp pp pp
-6.8702579198678801e+00 6.8702579198678801e+00
-6.8702579198678801e+00 6.8702579198678801e+00
-6.8702579198678801e+00 6.8702579198678801e+00
ITEM: ATOMS id mol type x y z 
2 1 1 -6.01148 -2.66454e-15 -2.66454e-15 
1 1 1 6.84842 -2.66454e-15 -2.66454e-15 
3 1 1 -5.13086 -2.66454e-15 -2.66454e-15 
4 1 1 -4.26839 -2.66454e-15 -2.66454e-15 
5 1 1 -3.42237 -2.66454e-15 -2.66454e-15 
15 1 1 5.13994 -2.66454e-15 -2.66454e-15 
16 1 1 5.98595 -2.66454e-15 -2.66454e-15 
ITEM: TIMESTEP
80000
ITEM: NUMBER OF ATOMS
7
ITEM: BOX BOUNDS pp pp pp
-6.8232714020080669e+00 6.8232714020080669e+00
-6.8232714020080669e+00 6.8232714020080669e+00
-6.8232714020080669e+00 6.8232714020080669e+00
ITEM: ATOMS id mol type x y z 
2 1 1 -5.97036 -2.66454e-15 -2.66454e-15 
1 1 1 6.82009 -2.66454e-15 -2.66454e-15 
3 1 1 -5.11427 -2.66454e-15 -2.66454e-15 
4 1 1 -4.28057 -2.66454e-15 -2.66454e-15 
5 1 1 -3.39586 -2.66454e-15 -2.66454e-15 
15 1 1 5.10167 -2.66454e-15 -2.66454e-15 
16 1 1 5.98639 -2.66454e-15 -2.66454e-15 
ITEM: TIMESTEP
90000
ITEM: NUMBER OF ATOMS
7
ITEM: BOX BOUNDS pp pp pp
-6.8400912346196643e+00 6.8400912346196643e+00
-6.8400912346196643e+00 6.8400912346196643e+00
-6.8400912346196643e+00 6.8400912346196643e+00
ITEM: ATOMS id mol type x y z 
2 1 1 -5.98508 -2.66454e-15 -2.66454e-15 
3 1 1 -5.11495 -2.66454e-15 -2.66454e-15 
4 1 1 -4.26748 -2.66454e-15 -2.66454e-15 
5 1 1 -3.40032 -2.66454e-15 -2.66454e-15 
15 1 1 5.11034 -2.66454e-15 -2.66454e-15 
1 1 1 6.82497 -2.66454e-15 -2.66454e-15 
16 1 1 5.97751 -2.66454e-15 -2.66454e-15 
ITEM: TIMESTEP
100000
ITEM: NUMBER OF ATOMS
7
ITEM: BOX BOUNDS pp pp pp
-6.8459343432225968e+00 6.8459343432225968e+00
-6.8459343432225968e+00 6.8459343432225968e+00
-6.8459343432225968e+00 6.8459343432225968e+00
ITEM: ATOMS id mol type x y z 
2 1 1 -5.99019 -2.66454e-15 -2.66454e-15 
1 1 1 6.80749 -2.66454e-15 -2.66454e-15 
3 1 1 -5.09601 -2.66454e-15 -2.66454e-15 
4 1 1 -4.23934 -2.66454e-15 -2.66454e-15 
5 1 1 -3.40466 -2.66454e-15 -2.66454e-15 
15 1 1 5.11615 -2.66454e-15 -2.66454e-15 
16 1 1 5.95082 -2.66454e-15 -2.66454e-15 
ITEM: TIMESTEP
110000
ITEM: NUMBER OF ATOMS
7
ITEM: BOX BOUNDS pp pp pp
-6.8450710485109738e+00 6.8450710485109738e+00
-6.8450710485109738e+00 6.8450710485109738e+00
-6.8450710485109738e+00 6.8450710485109738e+00
ITEM: ATOMS id mol type x y z 
2 1 1 -5.98944 -2.66454e-15 -2.66454e-15 
1 1 1 -6.86488 -2.66454e-15 -2.66454e-15 
3 1 1 -5.11399 -2.66454e-15 -2.66454e-15 
4 1 1 -4.27748 -2.66454e-15 -2.66454e-15 
5 1 1 -3.41513 -2.66454e-15 -2.66454e-15 
15 1 1 5.1264 -2.66454e-15 -2.66454e-15 
16 1 1 5.98874 -2.66454e-15 -2.66454e-15 
ITEM: TIMESTEP
120000
ITEM: NUMBER OF ATOMS
7
ITEM: BOX BOUNDS pp pp pp
-6.8726587699945032e+00 6.8726587699945032e+00
-6.8726587699945032e+00 6.8726587699945032e+00
-6.8726587699945032e+00 6.8726587699945032e+00
ITEM: ATOMS id mol type x y z 
2 1 1 -6.01358 -2.66454e-15 -2.66454e-15 
3 1 1 -5.11861 -2.66454e-15 -2.66454e-15 
4 1 1 -4.24535 -2.66454e-15 -2.66454e-15 
5 1 1 -3.36276 -2.66454e-15 -2.66454e-15 
15 1 1 5.08093 -2.66454e-15 -2.66454e-15 
1 1 1 6.83678 -2.66454e-15 -2.66454e-15 
16 1 1 5.96351 -2.66454e-15 -2.66454e-15 
ITEM: TIMESTEP
130000
ITEM: NUMBER OF ATOMS
7
ITEM: BOX BOUNDS pp pp pp
-6.8652324434587655e+00 6.8652324434587655e+00
-6.8652324434587655e+00 6.8652324434587655e+00
-6.8652324434587655e+00 6.8652324434587655e+00
ITEM: ATOMS id mol type x y z 
2 1 1 -6.00708 -2.66454e-15 -2.66454e-15 
3 1 1 -5.17385 -2.66454e-15 -2.66454e-15 
4 1 1 -4.32912 -2.66454e-15 -2.66454e-15 
5 1 1 -3.431 -2.66454e-15 -2.66454e-15 
15 1 1 5.14731 -2.66454e-15 -2.66454e-15 
1 1 1 6.89016 -2.66454e-15 -2.66454e-15 
16 1 1 6.04543 -2.66454e-15 -2.66454e-15 
ITEM: TIMESTEP
140000
ITEM: NUMBER OF ATOMS
7
ITEM: BOX BOUNDS pp pp pp
-6.8756561930507081e+00 6.8756561930507081e+00
-6.8756561930507081e+00 6.8756561930507081e+00
-6.8756561930507081e+00 6.8756561930507081e+00
ITEM: ATOMS id mol type x y z 
2 1 1 -6.0162 -2.66454e-15 -2.66454e-15 
3 1 1 -5.13175 -2.66454e-15 -2.66454e-15 
4 1 1 -4.27079 -2.66454e-15 -2.66454e-15 
5 1 1 -3.37845 -2.66454e-15 -2.66454e-15 
15 1 1 5.09736 -2.66454e-15 -2.66454e-15 
1 1 1 6.85067 -2.66454e-15 -2.66454e-15 
16 1 1 5.9897 -2.66454e-15 -2.66454e-15 
ITEM: TIMESTEP
150000
ITEM: NUMBER OF ATOMS
7
ITEM: BOX BOUNDS pp pp pp
-6.8928112066329392e+00 6.8928112066329392e+00
-6.8928112066329392e+00 6.8928112066329392e+00
-6.8928112066329392e+00 6.8928112066329392e+00
ITEM: ATOMS id mol type x y z 
2 1 1 -6.03121 -2.66454e-15 -2.66454e-15 
3 1 1 -5.20724 -2.66454e-15 -2.66454e-15 
4 1 1 -4.35473 -2.66454e-15 -2.66454e-15 
5 1 1 -3.51784 -2.66454e-15 -2.66454e-15 
15 1 1 5.24104 -2.66454e-15 -2.66454e-15 
1 1 1 -6.85518 -2.66454e-15 -2.66454e-15 
16 1 1 6.07794 -2.66454e-15 -2.66454e-15 
ITEM: TIMESTEP
160000
ITEM: NUMBER OF ATOMS
7
ITEM: BOX BOUNDS pp pp pp
-6.9247271115267646e+00 6.9247271115267646e+00
-6.9247271115267646e+00 6.9247271115267646e+00
-6.9247271115267646e+00 6.9247271115267646e+00
ITEM: ATOMS id mol type x y z 
2 1 1 -6.05914 -2.66454e-15 -2.66454e-15 
3 1 1 -5.20701 -2.66454e-15 -2.66454e-15 
4 1 1 -4.29145 -2.66454e-15 -2.66454e-15 
5 1 1 -3.40223 -2.66454e-15 -2.66454e-15 
15 1 1 5.13341 -2.66454e-15 -2.66454e-15 
1 1 1 6.93819 -2.66454e-15 -2.66454e-15 
16 1 1 6.02263 -2.66454e-15 -2.66454e-15 
ITEM: TIMESTEP
170000
ITEM: NUMBER OF ATOMS
7
ITEM: BOX BOUNDS pp pp pp
-6.8699015727326431e+00 6.8699015727326431e+00
-6.8699015727326431e+00 6.8699015727326431e+00
-6.8699015727326431e+00 6.8699015727326431e+00
ITEM: ATOMS id mol type x y z 
2 1 1 -6.01116 -2.66454e-15 -2.66454e-15 
1 1 1 -6.85373 -2.66454e-15 -2.66454e-15 
3 1 1 -5.1686 -2.66454e-15 -2.66454e-15 
4 1 1 -4.3441 -2.66454e-15 -2.66454e-15 
5 1 1 -3.47018 -2.66454e-15 -2.66454e-15 
15 1 1 5.18765 -2.66454e-15 -2.66454e-15 
16 1 1 6.06157 -2.66454e-15 -2.66454e-15 
ITEM: TIMESTEP
180000
ITEM: NUMBER OF ATOMS
7
ITEM: BOX BOUNDS pp pp pp
-6.8927046408809813e+00 6.8927046408809813e+00
-6.8927046408809813e+00 6.8927046408809813e+00
-6.8927046408809813e+00 6.8927046408809813e+00
ITEM: ATOMS id mol type x y z 
2 1 1 -6.03112 -2.66454e-15 -2.66454e-15 
3 1 1 -5.19631 -2.66454e-15 -2.66454e-15 
4 1 1 -4.31953 -2.66454e-15 -2.66454e-15 
5 1 1 -3.44055 -2.66454e-15 -2.66454e-15 
15 1 1 5.16373 -2.66454e-15 -2.66454e-15 
1 1 1 6.91949 -2.66454e-15 -2.66454e-15 
16 1 1 6.04271 -2.66454e-15 -2.66454e-15 
ITEM: TIMESTEP
190000
ITEM: NUMBER OF ATOMS
7
ITEM: BOX BOUNDS pp pp pp
-6.8505765438239399e+00 6.8505765438239399e+00
-6.8505765438239399e+00 6.8505765438239399e+00
-6.8505765438239399e+00 6.8505765438239399e+00
ITEM: ATOMS id mol type x y z 
2 1 1 -5.99425 -2.66454e-15 -2.66454e-15 
1 1 1 -6.85368 -2.66454e-15 -2.66454e-15 
3 1 1 -5.13483 -2.66454e-15 -2.66454e-15 
4 1 1 -4.29777 -2.66454e-15 -2.66454e-15 
5 1 1 -3.48036 -2.66454e-15 -2.66454e-15 
15 1 1 5.19301 -2.66454e-15 -2.66454e-15 
16 1 1 6.01042 -2.66454e-15 -2.66454e-15 
ITEM: TIMESTEP
200000
ITEM: NUMBER OF ATOMS
7
ITEM: BOX BOUNDS pp pp pp
-6.8599343377204089e+00 6.8599343377204089e+00
-6.8599343377204089e+00 6.8599343377204089e+00
-6.8599343377204089e+00 6.8599343377204089e+00
ITEM: ATOMS id mol type x y z 
2 1 1 -6.00244 -2.66454e-15 -2.66454e-15 
3 1 1 -5.13439 -2.66454e-15 -2.66454e-15 
4 1 1 -4.23943 -2.66454e-15 -2.66454e-15 
5 1 1 -3.39597 -2.66454e-15 -2.66454e-15 
15 1 1 5.11095 -2.66454e-15 -2.66454e-15 
1 1 1 6.84938 -2.66454e-15 -2.66454e-15 
16 1 1 5.95441 -2.66454e-15 -2.66454e-15 
ITEM: TIMESTEP
210000
ITEM: NUMBER OF ATOMS
7
ITEM: BOX BOUNDS pp pp pp
-6.8507650658179733e+00 6.8507650658179733e+00
-6.8507650658179733e+00 6.8507650658179733e+00
-6.8507650658179733e+00 6.8507650658179733e+00
ITEM: ATOMS id mol type x y z 
2 1 1 -5.99442 -2.66454e-15 -2.66454e-15 
3 1 1 -5.13814 -2.66454e-15 -2.66454e-15 
4 1 1 -4.25872 -2.66454e-15 -2.66454e-15 
5 1 1 -3.3843 -2.66454e-15 -2.66454e-15 
15 1 1 5.09699 -2.66454e-15 -2.66454e-15 
1 1 1 6.85083 -2.66454e-15 -2.66454e-15 
16 1 1 5.97141 -2.66454e-15 -2.66454e-15 
ITEM: TIMESTEP
220000
ITEM: NUMBER OF ATOMS
7
ITEM: BOX BOUNDS pp pp pp
-6.8327474680594351e+00 6.8327474680594351e+00
-6.8327474680594351e+00 6.8327474680594351e+00
-6.8327474680594351e+00 6.8327474680594351e+00
ITEM: ATOMS id mol type x y z 
2 1 1 -5.97865 -2.66454e-15 -2.66454e-15 
1 1 1 6.75169 -2.66454e-15 -2.66454e-15 
3 1 1 -5.04351 -2.66454e-15 -2.66454e-15 
4 1 1 -4.19088 -2.66454e-15 -2.66454e-15 
5 1 1 -3.32378 -2.66454e-15 -2.66454e-15 
15 1 1 5.03197 -2.66454e-15 -2.66454e-15 
16 1 1 5.89907 -2.66454e-15 -2.66454e-15 
ITEM: TIMESTEP
230000
ITEM: NUMBER OF ATOMS
7
ITEM: BOX BOUNDS pp pp pp
-6.8151141089911711e+00 6.8151141089911711e+00
-6.8151141089911711e+00 6.8151141089911711e+00
-6.8151141089911711e+00 6.8151141089911711e+00
ITEM: ATOMS id mol type x y z 
2 1 1 -5.96322 -2.66454e-15 -2.66454e-15 
3 1 1 -5.08054 -2.66454e-15 -2.66454e-15 
4 1 1 -4.23738 -2.66454e-15 -2.66454e-15 
5 1 1 -3.39666 -2.66454e-15 -2.66454e-15 
15 1 1 5.10044 -2.66454e-15 -2.66454e-15 
1 1 1 6.78431 -2.66454e-15 -2.66454e-15 
16 1 1 5.94116 -2.66454e-15 -2.66454e-15 
ITEM: TIMESTEP
240000
ITEM: NUMBER OF ATOMS
7
ITEM: BOX BOUNDS pp pp pp
-6.8377980124763438e+00 6.8377980124763438e+00
-6.8377980124763438e+00 6.8377980124763438e+00
-6.8377980124763438e+00 6.8377980124763438e+00
ITEM: ATOMS id mol type x y z 
2 1 1 -5.98307 -2.66454e-15 -2.66454e-15 
1 1 1 -6.83609 -2.66454e-15 -2.66454e-15 
3 1 1 -5.13006 -2.66454e-15 -2.66454e-15 
4 1 1 -4.27238 -2.66454e-15 -2.66454e-15 
5 1 1 -3.41738 -2.66454e-15 -2.66454e-15 
15 1 1 5.12683 -2.66454e-15 -2.66454e-15 
16 1 1 5.98183 -2.66454e-15 -2.66454e-15 
ITEM: TIMESTEP
250000
ITEM: NUMBER OF ATOMS
7
ITEM: BOX BOUNDS pp pp pp
-6.8625699169873853e+00 6.8625699169873853e+00
-6.8625699169873853e+00 6.8625699169873853e+00
-6.8625699169873853e+00 6.8625699169873853e+00
ITEM: ATOMS id mol type x y z 
2 1 1 -6.00475 -2.66454e-15 -2.66454e-15 
3 1 1 -5.13104 -2.66454e-15 -2.66454e-15 
4 1 1 -4.30305 -2.66454e-15 -2.66454e-15 
5 1 1 -3.42212 -2.66454e-15 -2.66454e-15 
15 1 1 5.13776 -2.66454e-15 -2.66454e-15 
1 1 1 6.84669 -2.66454e-15 -2.66454e-15 
16 1 1 6.01869 -2.66454e-15 -2.66454e-15 
ITEM: TIMESTEP
260000
ITEM: NUMBER OF ATOMS
7
ITEM: BOX BOUNDS pp pp pp
-6.8662735880748960e+00 6.8662735880748960e+00
-6.8662735880748960e+00 6.8662735880748960e+00
-6.8662735880748960e+00 6.8662735880748960e+00
ITEM: ATOMS id mol type x y z 
2 1 1 -6.00799 -2.66454e-15 -2.66454e-15 
1 1 1 -6.84828 -2.66454e-15 -2.66454e-15 
3 1 1 -5.1677 -2.66454e-15 -2.66454e-15 
4 1 1 -4.26898 -2.66454e-15 -2.66454e-15 
5 1 1 -3.41537 -2.66454e-15 -2.66454e-15 
15 1 1 5.13194 -2.66454e-15 -2.66454e-15 
16 1 1 5.98555 -2.66454e-15 -2.66454e-15 
ITEM: TIMESTEP
270000
ITEM: NUMBER OF ATOMS
7
ITEM: BOX BOUNDS pp pp pp
-6.8897016675687333e+00 6.8897016675687333e+00
-6.8897016675687333e+00 6.8897016675687333e+00
-6.8897016675687333e+00 6.8897016675687333e+00
ITEM: ATOMS id mol type x y z 
2 1 1 -6.02849 -2.66454e-15 -2.66454e-15 
1 1 1 -6.93132 -2.66454e-15 -2.66454e-15 
3 1 1 -5.12566 -2.66454e-15 -2.66454e-15 
4 1 1 -4.22177 -2.66454e-15 -2.66454e-15 
5 1 1 -3.38725 -2.66454e-15 -2.66454e-15 
15 1 1 5.10968 -2.66454e-15 -2.66454e-15 
16 1 1 5.94419 -2.66454e-15 -2.66454e-15 
ITEM: TIMESTEP
280000
ITEM: NUMBER OF ATOMS
7
ITEM: BOX BOUNDS pp pp pp
-6.8808108402466033e+00 6.8808108402466033e+00
-6.8808108402466033e+00 6.8808108402466033e+00
-6.8808108402466033e+00 6.8808108402466033e+00
ITEM: ATOMS id mol type x y z 
2 1 1 -6.02071 -2.66454e-15 -2.66454e-15 
3 1 1 -5.17706 -2.66454e-15 -2.66454e-15 
4 1 1 -4.32915 -2.66454e-15 -2.66454e-15 
5 1 1 -3.46761 -2.66454e-15 -2.66454e-15 
15 1 1 5.18781 -2.66454e-15 -2.66454e-15 
1 1 1 6.89726 -2.66454e-15 -2.66454e-15 
16 1 1 6.04935 -2.66454e-15 -2.66454e-15 
ITEM: TIMESTEP
290000
ITEM: NUMBER OF ATOMS
7
ITEM: BOX BOUNDS pp pp pp
-6.9191692760080494e+00 6.9191692760080494e+00
-6.9191692760080494e+00 6.9191692760080494e+00
-6.9191692760080494e+00 6.9191692760080494e+00
ITEM: ATOMS id mol type x y z 
2 1 1 -6.05427 -2.66454e-15 -2.66454e-15 
3 1 1 -5.19996 -2.66454e-15 -2.66454e-15 
4 1 1 -4.29722 -2.66454e-15 -2.66454e-15 
5 1 1 -3.41488 -2.66454e-15 -2.66454e-15 
15 1 1 5.14467 -2.66454e-15 -2.66454e-15 
1 1 1 6.92975 -2.66454e-15 -2.66454e-15 
16 1 1 6.02701 -2.66454e-15 -2.66454e-15 
ITEM: TIMESTEP
300000
ITEM: NUMBER OF ATOMS
7
ITEM: BOX BOUNDS pp pp pp
-6.9352378607643796e+00 6.9352378607643796e+00
-6.9352378607643796e+00 6.9352378607643796e+00
-6.9352378607643796e+00 6.9352378607643796e+00
ITEM: ATOMS id mol type x y z 
2 1 1 -6.06833 -2.66454e-15 -2.66454e-15 
3 1 1 -5.18598 -2.66454e-15 -2.66454e-15 
4 1 1 -4.31497 -2.66454e-15 -2.66454e-15 
5 1 1 -3.48396 -2.66454e-15 -2.66454e-15 
15 1 1 5.21777 -2.66454e-15 -2.66454e-15 
1 1 1 -6.95069 -2.66454e-15 -2.66454e-15 
16 1 1 6.04878 -2.66454e-15 -2.66454e-15 
ITEM: TIMESTEP
310000
ITEM: NUMBER OF ATOMS
7
ITEM: BOX BOUNDS pp pp pp
-6.9001392262023273e+00 6.9001392262023273e+00
-6.9001392262023273e+00 6.9001392262023273e+00
-6.9001392262023273e+00 6.9001392262023273e+00
ITEM: ATOMS id mol type x y z 
2 1 1 -6.03762 -2.66454e-15 -2.66454e-15 
3 1 1 -5.14687 -2.66454e-15 -2.66454e-15 
4 1 1 -4.30391 -2.66454e-15 -2.66454e-15 
5 1 1 -3.41316 -2.66454e-15 -2.66454e-15 
15 1 1 5.1382 -2.66454e-15 -2.66454e-15 
1 1 1 6.87191 -2.66454e-15 -2.66454e-15 
16 1 1 6.02894 -2.66454e-15 -2.66454e-15 
ITEM: TIMESTEP
320000
ITEM: NUMBER OF ATOMS
7
ITEM: BOX BOUNDS pp pp pp
-6.8498924514418951e+00 6.8498924514418951e+00
-6.8498924514418951e+00 6.8498924514418951e+00
-6.8498924514418951e+00 6.8498924514418951e+00
ITEM: ATOMS id mol type x y z 
2 1 1 -5.99366 -2.66454e-15 -2.66454e-15 
3 1 1 -5.16149 -2.66454e-15 -2.66454e-15 
4 1 1 -4.32064 -2.66454e-15 -2.66454e-15 
5 1 1 -3.49156 -2.66454e-15 -2.66454e-15 
15 1 1 5.20404 -2.66454e-15 -2.66454e-15 
1 1 1 6.87396 -2.66454e-15 -2.66454e-15 
16 1 1 6.03311 -2.66454e-15 -2.66454e-15 
ITEM: TIMESTEP
330000
ITEM: NUMBER OF ATOMS
7
ITEM: BOX BOUNDS pp pp pp
-6.8722328247757209e+00 6.8722328247757209e+00
-6.8722328247757209e+00 6.8722328247757209e+00
-6.8722328247757209e+00 6.8722328247757209e+00
ITEM: ATOMS id mol type x y z 
2 1 1 -6.0132 -2.66454e-15 -2.66454e-15 
3 1 1 -5.17491 -2.66454e-15 -2.66454e-15 
4 1 1 -4.31609 -2.66454e-15 -2.66454e-15 
5 1 1 -3.43657 -2.66454e-15 -2.66454e-15 
15 1 1 5.15463 -2.66454e-15 -2.66454e-15 
1 1 1 6.89296 -2.66454e-15 -2.66454e-15 
16 1 1 6.03415 -2.66454e-15 -2.66454e-15 
ITEM: TIMESTEP
340000
ITEM: NUMBER OF ATOMS
7
ITEM: BOX BOUNDS pp pp pp
-6.8362217839782087e+00 6.8362217839782087e+00
-6.8362217839782087e+00 6.8362217839782087e+00
-6.8362217839782087e+00 6.8362217839782087e+00
ITEM: ATOMS id mol type x y z 
2 1 1 -5.98169 -2.66454e-15 -2.66454e-15 
3 1 1 -5.1469 -2.66454e-15 -2.66454e-15 
4 1 1 -4.29553 -2.66454e-15 -2.66454e-15 
5 1 1 -3.42549 -2.66454e-15 -2.66454e-15 
15 1 1 5.13455 -2.66454e-15 -2.66454e-15 
1 1 1 6.85596 -2.66454e-15 -2.66454e-15 
16 1 1 6.00459 -2.66454e-15 -2.66454e-15 
ITEM: TIMESTEP
350000
ITEM: NUMBER OF ATOMS
7
ITEM: BOX BOUNDS pp pp pp
-6.8732250018725694e+00 6.8732250018725694e+00
-6.8732250018725694e+00 6.8732250018725694e+00
-6.8732250018725694e+00 6.8732250018725694e+00
ITEM: ATOMS id mol type x y z 
2 1 1 -6.01407 -2.66454e-15 -2.66454e-15 
3 1 1 -5.14206 -2.66454e-15 -2.66454e-15 
4 1 1 -4.23791 -2.66454e-15 -2.66454e-15 
5 1 1 -3.37087 -2.66454e-15 -2.66454e-15 
15 1 1 5.08917 -2.66454e-15 -2.66454e-15 
1 1 1 6.86037 -2.66454e-15 -2.66454e-15 
16 1 1 5.95622 -2.66454e-15 -2.66454e-15 
ITEM: TIMESTEP
360000
ITEM: NUMBER OF ATOMS
7
ITEM: BOX BOUNDS pp pp pp
-6.8821575058985038e+00 6.8821575058985038e+00
-6.8821575058985038e+00 6.8821575058985038e+00
-6.8821575058985038e+00 6.8821575058985038e+00
ITEM: ATOMS id mol type x y z 
2 1 1 -6.02189 -2.66454e-15 -2.66454e-15 
1 1 1 -6.90786 -2.66454e-15 -2.66454e-15 
3 1 1 -5.13592 -2.66454e-15 -2.66454e-15 
4 1 1 -4.26431 -2.66454e-15 -2.66454e-15 
5 1 1 -3.43298 -2.66454e-15 -2.66454e-15 
15 1 1 5.15352 -2.66454e-15 -2.66454e-15 
16 1 1 5.98485 -2.66454e-15 -2.66454e-15 
ITEM: TIMESTEP
370000
ITEM: NUMBER OF ATOMS
7
ITEM: BOX BOUNDS pp pp pp
-6.8845618084226707e+00 6.8845618084226707e+00
-6.8845618084226707e+00 6.8845618084226707e+00
-6.8845618084226707e+00 6.8845618084226707e+00
ITEM: ATOMS id mol type x y z 
2 1 1 -6.02399 -2.66454e-15 -2.66454e-15 
3 1 1 -5.11738 -2.66454e-15 -2.66454e-15 
4 1 1 -4.26596 -2.66454e-15 -2.66454e-15 
5 1 1 -3.37478 -2.66454e-15 -2.66454e-15 
15 1 1 5.09593 -2.66454e-15 -2.66454e-15 
1 1 1 6.83852 -2.66454e-15 -2.66454e-15 
16 1 1 5.9871 -2.66454e-15 -2.66454e-15 
ITEM: TIMESTEP
380000
ITEM: NUMBER OF ATOMS
7
ITEM: BOX BOUNDS pp pp pp
-6.8809162405207589e+00 6.8809162405207589e+00
-6.8809162405207589e+00 6.8809162405207589e+00
-6.8809162405207589e+00 6.8809162405207589e+00
ITEM: ATOMS id mol type x y z 
2 1 1 -6.0208 -2.66454e-15 -2.66454e-15 
1 1 1 6.8283 -2.66454e-15 -2.66454e-15 
3 1 1 -5.10807 -2.66454e-15 -2.66454e-15 
4 1 1 -4.26273 -2.66454e-15 -2.66454e-15 
5 1 1 -3.43584 -2.66454e-15 -2.66454e-15 
15 1 1 5.15606 -2.66454e-15 -2.66454e-15 
16 1 1 5.98296 -2.66454e-15 -2.66454e-15 
ITEM: TIMESTEP
390000
ITEM: NUMBER OF ATOMS
7
ITEM: BOX BOUNDS pp pp pp
-6.8755151645821302e+00 6.8755151645821302e+00
-6.8755151645821302e+00 6.8755151645821302e+00
-6.8755151645821302e+00 6.8755151645821302e+00
ITEM: ATOMS id mol type x y z 
2 1 1 -6.01608 -2.66454e-15 -2.66454e-15 
1 1 1 6.8975 -2.66454e-15 -2.66454e-15 
3 1 1 -5.17862 -2.66454e-15 -2.66454e-15 
4 1 1 -4.26864 -2.66454e-15 -2.66454e-15 
5 1 1 -3.40788 -2.66454e-15 -2.66454e-15 
15 1 1 5.12676 -2.66454e-15 -2.66454e-15 
16 1 1 5.98752 -2.66454e-15 -2.66454e-15 
ITEM: TIMESTEP
400000
ITEM: NUMBER OF ATOMS
7
ITEM: BOX BOUNDS pp pp pp
-6.8735762148223349e+00 6.8735762148223349e+00
-6.8735762148223349e+00 6.8735762148223349e+00
-6.8735762148223349e+00 6.8735762148223349e+00
ITEM: ATOMS id mol type x y z 
2 1 1 -6.01438 -2.66454e-15 -2.66454e-15 
1 1 1 -6.85524 -2.66454e-15 -2.66454e-15 
3 1 1 -5.17352 -2.66454e-15 -2.66454e-15 
4 1 1 -4.32872 -2.66454e-15 -2.66454e-15 
5 1 1 -3.4364 -2.66454e-15 -2.66454e-15 
15 1 1 5.1548 -2.66454e-15 -2.66454e-15 
16 1 1 6.04711 -2.66454e-15 -2.66454e-15 
ITEM: TIMESTEP
410000
ITEM: NUMBER OF ATOMS
7
ITEM: BOX BOUNDS pp pp pp
-6.8625160264335507e+00 6.8625160264335507e+00
-6.8625160264335507e+00 6.8625160264335507e+00
-6.8625160264335507e+00 6.8625160264335507e+00
ITEM: ATOMS id mol type x y z 
2 1 1 -6.0047 -2.66454e-15 -2.66454e-15 
3 1 1 -5.17663 -2.66454e-15 -2.66454e-15 
4 1 1 -4.31982 -2.66454e-15 -2.66454e-15 
5 1 1 -3.48024 -2.66454e-15 -2.66454e-15 
15 1 1 5.19587 -2.66454e-15 -2.66454e-15 
1 1 1 6.89226 -2.66454e-15 -2.66454e-15 
16 1 1 6.03545 -2.66454e-15 -2.66454e-15 
ITEM: TIMESTEP
420000
ITEM: NUMBER OF ATOMS
7
ITEM: BOX BOUNDS pp pp pp
-6.9000912517197071e+00 6.9000912517197071e+00
-6.9000912517197071e+00 6.9000912517197071e+00
-6.9000912517197071e+00 6.9000912517197071e+00
ITEM: ATOMS id mol type x y z 
2 1 1 -6.03758 -2.66454e-15 -2.66454e-15 
1 1 1 -6.93418 -2.66454e-15 -2.66454e-15 
3 1 1 -5.14098 -2.66454e-15 -2.66454e-15 
4 1 1 -4.26782 -2.66454e-15 -2.66454e-15 
5 1 1 -3.37024 -2.66454e-15 -2.66454e-15 
15 1 1 5.09527 -2.66454e-15 -2.66454e-15 
16 1 1 5.99284 -2.66454e-15 -2.66454e-15 
ITEM: TIMESTEP
430000
ITEM: NUMBER OF ATOMS
7
ITEM: BOX BOUNDS pp pp pp
-6.8560834901592891e+00 6.8560834901592891e+00
-6.8560834901592891e+00 6.8560834901592891e+00
-6.8560834901592891e+00 6.8560834901592891e+00
ITEM: ATOMS id mol type x y z 
2 1 1 -5.99907 -2.66454e-15 -2.66454e-15 
1 1 1 6.83818 -2.66454e-15 -2.66454e-15 
3 1 1 -5.12415 -2.66454e-15 -2.66454e-15 
4 1 1 -4.32096 -2.66454e-15 -2.66454e-15 
5 1 1 -3.45431 -2.66454e-15 -2.66454e-15 
15 1 1 5.16833 -2.66454e-15 -2.66454e-15 
16 1 1 6.03498 -2.66454e-15 -2.66454e-15 
ITEM: TIMESTEP
440000
ITEM: NUMBER OF ATOMS
7
ITEM: BOX BOUNDS pp pp pp
-6.8489407512859648e+00 6.8489407512859648e+00
-6.8489407512859648e+00 6.8489407512859648e+00
-6.8489407512859648e+00 6.8489407512859648e+00
ITEM: ATOMS id mol type x y z 
2 1 1 -5.99282 -2.66454e-15 -2.66454e-15 
1 1 1 6.86474 -2.66454e-15 -2.66454e-15 
3 1 1 -5.15251 -2.66454e-15 -2.66454e-15 
4 1 1 -4.26485 -2.66454e-15 -2.66454e-15 
5 1 1 -3.37353 -2.66454e-15 -2.66454e-15 
15 1 1 5.08577 -2.66454e-15 -2.66454e-15 
16 1 1 5.97708 -2.66454e-15 -2.66454e-15 
ITEM: TIMESTEP
450000
ITEM: NUMBER OF ATOMS
7
ITEM: BOX BOUNDS pp pp pp
-6.8500793808365499e+00 6.8500793808365499e+00
-6.8500793808365499e+00 6.8500793808365499e+00
-6.8500793808365499e+00 6.8500793808365499e+00
ITEM: ATOMS id mol type x y z 
2 1 1 -5.99382 -2.66454e-15 -2.66454e-15 
3 1 1 -5.15288 -2.66454e-15 -2.66454e-15 
4 1 1 -4.29573 -2.66454e-15 -2.66454e-15 
5 1 1 -3.42801 -2.66454e-15 -2.66454e-15 
15 1 1 5.14053 -2.66454e-15 -2.66454e-15 
1 1 1 -6.83476 -2.66454e-15 -2.66454e-15 
16 1 1 6.00825 -2.66454e-15 -2.66454e-15 
ITEM: TIMESTEP
460000
ITEM: NUMBER OF ATOMS
7
ITEM: BOX BOUNDS pp pp pp
-6.8328166565834572e+00 6.8328166565834572e+00
-6.8328166565834572e+00 6.8328166565834572e+00
-6.8328166565834572e+00 6.8328166565834572e+00
ITEM: ATOMS id mol type x y z 
2 1 1 -5.97871 -2.66454e-15 -2.66454e-15 
3 1 1 -5.10382 -2.66454e-15 -2.66454e-15 
4 1 1 -4.25946 -2.66454e-15 -2.66454e-15 
5 1 1 -3.42305 -2.66454e-15 -2.66454e-15 
15 1 1 5.13125 -2.66454e-15 -2.66454e-15 
1 1 1 6.81202 -2.66454e-15 -2.66454e-15 
16 1 1 5.96766 -2.66454e-15 -2.66454e-15 
ITEM: TIMESTEP
470000
ITEM: NUMBER OF ATOMS
7
ITEM: BOX BOUNDS pp pp pp
-6.8555776893702323e+00 6.8555776893702323e+00
-6.8555776893702323e+00 6.8555776893702323e+00
-6.8555776893702323e+00 6.8555776893702323e+00
ITEM: ATOMS id mol type x y z 
2 1 1 -5.99863 -2.66454e-15 -2.66454e-15 
3 1 1 -5.15115 -2.66454e-15 -2.66454e-15 
4 1 1 -4.259 -2.66454e-15 -2.66454e-15 
5 1 1 -3.35723 -2.66454e-15 -2.66454e-15 
15 1 1 5.07112 -2.66454e-15 -2.66454e-15 
1 1 1 -6.84611 -2.66454e-15 -2.66454e-15 
16 1 1 5.97289 -2.66454e-15 -2.66454e-15 
ITEM: TIMESTEP
480000
ITEM: NUMBER OF ATOMS
7
ITEM: BOX BOUNDS pp pp pp
-6.8448636337799771e+00 6.8448636337799771e+00
-6.8448636337799771e+00 6.8448636337799771e+00
-6.8448636337799771e+00 6.8448636337799771e+00
ITEM: ATOMS id mol type x y z 
2 1 1 -5.98926 -2.66454e-15 -2.66454e-15 
3 1 1 -5.17458 -2.66454e-15 -2.66454e-15 
4 1 1 -4.31136 -2.66454e-15 -2.66454e-15 
5 1 1 -3.44539 -2.66454e-15 -2.66454e-15 
15 1 1 5.15661 -2.66454e-15 -2.66454e-15 
1 1 1 6.88579 -2.66454e-15 -2.66454e-15 
16 1 1 6.02258 -2.66454e-15 -2.66454e-15 
ITEM: TIMESTEP
490000
ITEM: NUMBER OF ATOMS
7
ITEM: BOX BOUNDS pp pp pp
-6.8458933472863404e+00 6.8458933472863404e+00
-6.8458933472863404e+00 6.8458933472863404e+00
-6.8458933472863404e+00 6.8458933472863404e+00
ITEM: ATOMS id mol type x y z 
2 1 1 -5.99016 -2.66454e-15 -2.66454e-15 
1 1 1 -6.84623 -2.66454e-15 -2.66454e-15 
3 1 1 -5.13409 -2.66454e-15 -2.66454e-15 
4 1 1 -4.26142 -2.66454e-15 -2.66454e-15 
5 1 1 -3.3922 -2.66454e-15 -2.66454e-15 
15 1 1 5.10368 -2.66454e-15 -2.66454e-15 
16 1 1 5.9729 -2.66454e-15 -2.66454e-15 
ITEM: TIMESTEP
500000
ITEM: NUMBER OF ATOMS
7
ITEM: BOX BOUNDS pp pp pp
-6.8412660812472446e+00 6.8412660812472446e+00
-6.8412660812472446e+00 6.8412660812472446e+00
-6.8412660812472446e+00 6.8412660812472446e+00
ITEM: ATOMS id mol type x y z 
2 1 1 -5.98611 -2.66454e-15 -2.66454e-15 
3 1 1 -5.17308 -2.66454e-15 -2.66454e-15 
4 1 1 -4.31289 -2.66454e-15 -2.66454e-15 
5 1 1 -3.46372 -2.66454e-15 -2.66454e-15 
15 1 1 5.17404 -2.66454e-15 -2.66454e-15 
1 1 1 -6.79913 -2.66454e-15 -2.66454e-15 
16 1 1 6.02321 -2.66454e-15 -2.66454e-15 
ITEM: TIMESTEP
510000
ITEM: NUMBER OF ATOMS
7
ITEM: BOX BOUNDS pp pp pp
-6.8912153332856363e+00 6.8912153332856363e+00
-6.8912153332856363e+00 6.8912153332856363e+00
-6.8912153332856363e+00 6.8912153332856363e+00
ITEM: ATOMS id mol type x y z 
2 1 1 -6.02981 -2.66454e-15 -2.66454e-15 
1 1 1 6.82532 -2.66454e-15 -2.66454e-15 
3 1 1 -5.10252 -2.66454e-15 -2.66454e-15 
4 1 1 -4.24132 -2.66454e-15 -2.66454e-15 
5 1 1 -3.39188 -2.66454e-15 -2.66454e-15 
15 1 1 5.11468 -2.66454e-15 -2.66454e-15 
16 1 1 5.96413 -2.66454e-15 -2.66454e-15 
ITEM: TIMESTEP
520000
ITEM: NUMBER OF ATOMS
7
ITEM: BOX BOUNDS pp pp pp
-6.8641670599269080e+00 6.8641670599269080e+00
-6.8641670599269080e+00 6.8641670599269080e+00
-6.8641670599269080e+00 6.8641670599269080e+00
ITEM: ATOMS id mol type x y z 
2 1 1 -6.00615 -2.66454e-15 -2.66454e-15 
3 1 1 -5.18111 -2.66454e-15 -2.66454e-15 
4 1 1 -4.30456 -2.66454e-15 -2.66454e-15 
5 1 1 -3.46719 -2.66454e-15 -2.66454e-15 
15 1 1 5.18323 -2.66454e-15 -2.66454e-15 
1 1 1 6.89715 -2.66454e-15 -2.66454e-15 
16 1 1 6.02061 -2.66454e-15 -2.66454e-15 
ITEM: TIMESTEP
530000
ITEM: NUMBER OF ATOMS
7
ITEM: BOX BOUNDS pp pp pp
-6.8928719791237461e+00 6.8928719791237461e+00
-6.8928719791237461e+00 6.8928719791237461e+00
-6.8928719791237461e+00 6.8928719791237461e+00
ITEM: ATOMS id mol type x y z 
2 1 1 -6.03126 -2.66454e-15 -2.66454e-15 
1 1 1 -6.8724 -2.66454e-15 -2.66454e-15 
3 1 1 -5.19013 -2.66454e-15 -2.66454e-15 
4 1 1 -4.32834 -2.66454e-15 -2.66454e-15 
5 1 1 -3.43132 -2.66454e-15 -2.66454e-15 
15 1 1 5.15454 -2.66454e-15 -2.66454e-15 
16 1 1 6.05155 -2.66454e-15 -2.66454e-15 
ITEM: TIMESTEP
540000
ITEM: NUMBER OF ATOMS
7
ITEM: BOX BOUNDS pp pp pp
-6.8787763636499282e+00 6.8787763636499282e+00
-6.8787763636499282e+00 6.8787763636499282e+00
-6.8787763636499282e+00 6.8787763636499282e+00
ITEM: ATOMS id mol type x y z 
2 1 1 -6.01893 -2.66454e-15 -2.66454e-15 
1 1 1 6.88436 -2.66454e-15 -2.66454e-15 
3 1 1 -5.16467 -2.66454e-15 -2.66454e-15 
4 1 1 -4.31221 -2.66454e-15 -2.66454e-15 
5 1 1 -3.46229 -2.66454e-15 -2.66454e-15 
15 1 1 5.18199 -2.66454e-15 -2.66454e-15 
16 1 1 6.03191 -2.66454e-15 -2.66454e-15 
ITEM: TIMESTEP
550000
ITEM: NUMBER OF ATOMS
7
ITEM: BOX BOUNDS pp pp pp
-6.9005990359342162e+00 6.9005990359342162e+00
-6.9005990359342162e+00 6.9005990359342162e+00
-6.9005990359342162e+00 6.9005990359342162e+00
ITEM: ATOMS id mol type x y z 
2 1 1 -6.03802 -2.66454e-15 -2.66454e-15 
3 1 1 -5.13919 -2.66454e-15 -2.66454e-15 
4 1 1 -4.27068 -2.66454e-15 -2.66454e-15 
5 1 1 -3.40979 -2.66454e-15 -2.66454e-15 
15 1 1 5.13494 -2.66454e-15 -2.66454e-15 
1 1 1 6.86434 -2.66454e-15 -2.66454e-15 
16 1 1 5.99583 -2.66454e-15 -2.66454e-15 
ITEM: TIMESTEP
560000
ITEM: NUMBER OF ATOMS
7
ITEM: BOX BOUNDS pp pp pp
-6.8857684532676533e+00 6.8857684532676533e+00