
16 	 atoms
2 	 atom types
8	 bonds
1 	 bond types

-8.0 8.0 xlo xhi
-8.0 8.0 ylo yhi
-8.0 8.0 zlo zhi

Atoms

1 	1 	1	-8.0 	0 	0
2 	1 	1	-7.0 	0 	0
3 	1 	1	-6.0	0 	0
4 	1 	1	-5.0 	0 	0
5 	1 	1	-4.0 	0 	0
6 	1 	2	-3.0 	0 	0
7 	1 	2	-2.0 	0 	0
8 	1 	2	-1.0 	0 	0
9 	1 	2	0 	0 	0
10 	1 	2	1.0 	0 	0
11 	1 	2	2.0 	0 	0
12 	1 	2	3.0 	0 	0
13 	1 	2	4.0	0 	0
14 	1 	2	5.0 	0 	0
15 	1 	1	6.0 	0 	0
16 	1 	1	7.0 	0 	0


Bonds

1	1	6	7
2	1	7	8
3	1	8	9
4	1	9	10
5	1	10	11
6	1	11	12
7	1	12	13
8	1	13	14

