LAMMPS (31 Mar 2017)

units lj
boundary p p p
atom_style bond

read_data lammps_input.txt
  orthogonal box = (-2 -2 -2) to (15 15 15)
  1 by 1 by 1 MPI processor grid
  reading atoms ...
ERROR: Incorrect atom format in data file (../atom.cpp:901)
Last command: read_data lammps_input.txt
