LAMMPS (31 Mar 2017)

units lj
boundary p p p
atom_style bond

read_data lammps_input.txt
  orthogonal box = (-8 -8 -8) to (8 8 8)
  1 by 1 by 1 MPI processor grid
  reading atoms ...
  16 atoms
  scanning bonds ...
  1 = max bonds/atom
  reading bonds ...
  8 bonds
  2 = max # of 1-2 neighbors
  2 = max # of 1-3 neighbors
  4 = max # of 1-4 neighbors
  6 = max # of special neighbors

mass * 1.0

pair_style lj/cut 2.5
pair_coeff * * 1.0 1.0 2.5
bond_style fene
bond_coeff 1 30.0 1.5 1.0 1.0


#fix 1 all nvt temp 1.0 1.0 0.5
fix 2 all npt iso 0.5 0.5 1 temp 1.0 1.0 0.5
neigh_modify every 1 delay 0
timestep 0.0001

group chain type 2
9 atoms in group chain
group solvents type 1
7 atoms in group solvents
dump 1 chain custom 10000 A.lammpstrj id mol type x y z
dump 2 solvents custom 10000 B.lammpstrj id mol type x y z
thermo 1000
run 10000000
WARNING: Use special bonds = 0,1,1 with bond style fene (../bond_fene.cpp:188)
Neighbor list info ...
  update every 1 steps, delay 0 steps, check yes
  max neighbors/atom: 2000, page size: 100000
  master list distance cutoff = 2.8
  ghost atom cutoff = 2.8
  binsize = 1.4, bins = 12 12 12
  1 neighbor lists, perpetual/occasional/extra = 1 0 0
  (1) pair lj/cut, perpetual
      attributes: half, newton on
      pair build: half/bin/newton
      stencil: half/bin/3d/newton
      bin: standard
Per MPI rank memory allocation (min/avg/max) = 6.517 | 6.517 | 6.517 Mbytes
Step Temp E_pair E_mol TotEng Press Volume 
       0            0 -0.034606934      10.4189    10.384293 -0.0041723251         4096 
    1000   0.26194235    15.156916    24.617944    40.143217    1.1365732    2213.1501 
    2000  0.078859977    5.5597165    13.148677     18.81929    0.3331791    2743.9852 
    3000   0.12628775    6.6191021    16.574688    23.371382   0.50258732    2563.3944 
    4000   0.13353361    9.5341136    15.519528    25.241423   0.56275943    2507.4644 
    5000   0.23438263    5.5931519    15.338825    21.261577    0.4223571     2638.428 
    6000   0.20679678    9.0027901      16.1765    25.470099     0.570509    2502.8637 
    7000    0.2152274    6.6295834    15.518494    22.450741   0.46274821    2598.6317 
    8000   0.32637907    8.0955304    15.208707    23.763208   0.50275949    2557.4004 
    9000   0.34761912    8.0753859    15.358996    23.923221   0.50764842    2554.1367 
   10000   0.37116019     6.007225    16.358153    22.887322   0.47562149    2589.3446 
   11000   0.23275316    8.7158258    15.454863    24.497998   0.52984926    2540.0186 
   12000   0.14297101     6.166551     16.68425    23.051854   0.48695736     2588.666 
   13000   0.39716134    8.8865877    14.862932    24.308028   0.51383539    2551.3354 
   14000   0.38746144    6.1259325     16.99888     23.66968   0.50008967     2574.719 
   15000   0.34606694    8.4020215    14.894481    23.783159   0.49488088    2574.4985 
   16000   0.71180818    7.9219357    15.121216    24.044132   0.49389548    2569.4724 
   17000   0.63671889    6.8170084    15.875388    23.587782   0.48367529    2587.6742 
   18000   0.19374992    8.3861819    15.815069    24.473712    0.5232417     2563.328 
   19000   0.73474069    6.2884679    16.586897    23.908594   0.49223082    2586.0142 
   20000    0.3324687    9.2483621    14.725441    24.441337   0.51130087    2573.5303 
   21000   0.65962358    6.6302456    16.700879    24.258721   0.50162342    2584.1873 
   22000    0.2173321    8.5358203    15.716567    24.558011   0.51912087    2579.7433 
   23000     1.039423    7.4893272    15.502135    24.453151   0.48994526    2588.2537 
   24000   0.53729857    9.1940406    14.656929    24.606546   0.50549794    2588.3181 
   25000    0.7712871    6.0332011    17.504699    24.622523   0.50749549     2593.053 
   26000   0.70046227    6.9723963    17.002971    24.960393   0.51650048    2587.2179 
   27000    1.0319101    8.2326088    15.132858     24.81659   0.49647913    2596.7249 
   28000    1.1231983    7.8163268    15.121375    24.517199   0.47922837    2610.6029 
   29000    1.2570611    9.5054142    14.180639    25.453796   0.50419328    2584.1918 
   30000   0.63577516    4.6715029    18.980907    24.546469   0.51061609    2617.0572 
   31000     1.324846    9.6914139    14.518109    26.072587   0.52338738    2570.9607 
   32000    1.7144952    6.4441018    15.801308    24.656418   0.47144315    2618.3057 
   33000   0.56487596    10.723424      14.1064    25.624181   0.52364089    2588.2574 
   34000    1.8760082    5.8574045    16.552396    25.047937   0.48160525    2606.7164 
   35000    1.4467483    6.9000968    15.810317    24.744904   0.47875958    2615.2277 
   36000    1.2129186    8.7711356    14.908612    25.385415   0.50524015    2592.0087 
   37000    1.2485633    6.6676938    16.014703    24.438189   0.47859746    2619.5887 
   38000    1.5083618    9.8500202    13.493527    25.464681    0.4943124    2582.8739 
   39000   0.61543998    6.0103698    18.041626    24.917458   0.52048475    2597.1349 
   40000    1.2446184    9.0737814    14.210884     25.03491   0.49307709    2589.2024 
   41000   0.55488889      6.97019    17.008336    24.758839   0.51513383    2594.1135 
   42000    1.1471067    8.1161939    15.011429    24.740742   0.49189727    2590.8362 
   43000    1.0952082    5.9097867    17.039835    24.489758   0.49414888    2595.7276 
   44000     1.223728    7.9393357    15.266792    24.926995   0.49807047    2579.1515 
   45000   0.91619245    8.4754413    14.417664    24.181501   0.48049418      2601.13 
   46000    1.0317292    6.7099021    16.351834    24.512606   0.49691427    2588.9999 
   47000    1.0160132    7.9001203    15.423691     24.75258   0.49988408    2580.0937 
   48000   0.62814665    5.4429813    17.813105    24.139417   0.50042371    2598.7132 
   49000    0.1601774    9.6133616    15.447337    25.285948   0.54324437     2561.817 
   50000   0.62543059    5.6896449     17.36726    23.936417   0.49178724     2605.442 
   51000    0.8890982    7.3706588    16.438439    25.059392   0.51792895    2570.2935 
   52000   0.90710293    5.9742726    16.911532    24.161418   0.48967518    2600.4173 
   53000   0.90884636    8.5221939    14.808791    24.609051   0.49443206    2588.2179 
   54000    1.0107502    7.7816845    15.578631    24.781683   0.49827078    2585.2047 
   55000   0.86894117    5.7296232    17.458011    24.409583   0.49732673    2600.4613 
   56000   0.85538181    7.3665235    16.572606     25.14201   0.51863266     2580.601 
   57000   0.89766033     6.162519    16.776552    24.201405   0.48610955    2614.6309 
   58000   0.83108337    9.6520708    14.796336    25.617117   0.52746253    2572.7844 
   59000    1.0571013     5.488006      17.5915    24.566055   0.49356855    2610.1947 
   60000    1.5863084    9.2535548    13.998656    25.482957   0.49408626    2583.7407 
   61000    1.3149447    6.1725845    16.971868    24.993593   0.49964047    2601.4495 
   62000   0.83478788    8.8632407    14.400215    24.437376    0.4838306    2620.1534 
   63000    1.7742215    7.2594766    15.789903    25.544379   0.50018488    2585.0926 
   64000    1.6836194    5.2378903    16.632435    24.237915   0.46176928    2626.4553 
   65000   0.87611825      9.95332     14.18805    25.373411   0.51044584    2587.6157 
   66000     1.571635    6.2615314    17.043355    25.514998   0.51003936    2583.7176 
   67000    1.0456221    8.5958408    14.193845    24.260092    0.4721263    2622.5934 
   68000    1.0676823    5.4354865    19.280783    26.217698   0.55878691    2557.0786 
   69000    1.1802085    8.0299919    14.099963    23.789623   0.45409857      2627.38 
   70000    1.2333846    7.8846966     15.01349    24.632634   0.48453521    2594.2338 
   71000    1.1909053    8.6434247    15.225633    25.543768   0.52212895      2560.85 
   72000    0.5452925    5.9476049     16.04732    22.761742   0.44702508    2647.9405 
   73000    1.1383647     7.003619    18.272911    26.877355    0.5821445     2514.261 
   74000   0.71691519    7.4542074    14.017196    22.479566   0.42908318    2650.6011 
   75000   0.97074119    8.0097721    15.723174    25.098051   0.51608719    2562.3226 
   76000   0.66441763     8.763666    15.413646     25.11165   0.52700424    2560.9272 
   77000   0.45418173    5.6828754     16.10908    22.430648   0.44237249    2650.1136 
   78000   0.47162251    11.600735    14.965176    27.229129   0.60365943    2499.8611 
   79000    0.4889197    5.8779292    15.539133    22.104605    0.4319706    2664.0525 
   80000   0.56889052     10.31865    14.838337    25.956989   0.55455913    2541.3702 
   81000   0.97865028    6.7786096    16.139059    24.293896   0.48955885    2594.3939 
   82000    1.1798316    7.2413511    14.410705    23.311194   0.44259855    2629.9863 
   83000   0.97524971    10.141267    14.807499    26.320211   0.55037526    2537.2357 
   84000   0.48957153    5.1932007    16.689266    22.570927   0.44771022    2659.5309 
   85000   0.48719221    11.873144    14.211282     26.76954   0.58047583     2525.804 
   86000   0.92210578    5.2072144    17.275445     23.77937   0.47588788    2623.9989 
   87000    1.0034995    10.308519     13.48466     25.20435   0.50215896     2582.412 
   88000    1.0292234     6.705493    17.041135    25.193974   0.51472089    2584.9228 
   89000   0.99735436    7.2012474    15.120293     23.72407   0.46020004    2634.6262 
   90000    1.7533777    7.6348557     15.96994    26.070483   0.51965651    2560.2105 
   91000   0.56406582    7.9058414     15.07946    23.778519    0.4749263    2634.3324 
   92000     1.571419    9.1216693    14.122013     25.45349   0.49523153    2580.4051 
   93000   0.99025519    6.0477781    17.760338    25.200662   0.51792269    2589.4425 
   94000    1.6028927    7.5143585      14.5652    24.333626   0.45899703     2617.604 
   95000   0.82837217    7.8288743    16.780117     25.77389   0.53515717    2571.8757 
   96000    1.6540802    7.6679756     14.35712    24.351145   0.45691115    2616.0895 
   97000   0.57095064     5.407288    18.842746    25.052934   0.53362284    2591.3138 
   98000    1.2413704    8.0113484    15.740534     25.49756   0.51280911     2574.244 
   99000   0.63155688    7.7755309    15.194389    23.858047   0.47730262    2624.0853 
  100000   0.93467818    8.8620187    15.337758    25.514168   0.52546411    2566.7772 
  101000    1.3778729    7.7279133    14.226677    23.892224   0.45469179    2613.5096 
  102000   0.87334406    5.8200587     17.62291    24.671109   0.51325933    2582.1526 
  103000   0.65053256    8.7168099     15.33092    24.962541   0.52086753    2567.8411 
  104000   0.50362347    6.3680844     16.51159    23.587895   0.48189776    2608.6772 
  105000   0.79070379    9.1971607    15.145619    25.454707   0.53225553    2547.1992 
  106000   0.45348404    5.5173576    17.350692    23.505762   0.48536263    2608.9205 
  107000   0.96885756    8.5659661    14.952515    24.880938   0.50758061    2565.0364 
  108000    0.7652468    6.9395647    16.138097     24.15379    0.4927527    2588.9474 
  109000   0.71064535    6.5744248    16.391677    23.965447   0.48771212    2596.4239 
  110000   0.64261887    7.6605689    16.418496    24.982748   0.52348573    2565.8063 
  111000    1.1247674    6.2156776    15.827782    23.625163   0.46290697    2611.5238 
  112000   0.64949844    9.7232894    14.636651    25.273298   0.52747134     2560.903 
  113000    1.0358109     5.102673      17.5392    24.098482   0.48700609    2602.0404 
  114000   0.82221706    9.4671283    14.462459     25.08583   0.51183711    2573.7742 
  115000    1.0048415    6.0570567    17.199894    24.670009   0.50323941    2590.0856 
  116000    1.3194961    8.8199556    13.873851    24.549348   0.47491843    2595.9299 
  117000     1.108349     6.496855    16.754364    24.809835   0.50308183      2589.93 
  118000    1.4566156    5.9124531    16.355132    24.315951   0.47343383    2607.1886 
  119000   0.94091112    9.5851363     14.12198    25.030272     0.501956    2585.3261 
  120000    1.4835588    6.2164392    16.425744    24.728437    0.4875897    2596.9544 
  121000    1.3521868     9.046854    14.041123     24.98949   0.48838987     2589.688 
  122000    1.0237833    5.9381557    17.539291    24.917142   0.51183249    2592.7788 
  123000   0.80806064    7.9847503    15.812425     24.93351    0.5101537    2592.5831 
  124000   0.96080676    8.0061384    15.366385    24.723658   0.49200128    2599.7518 
  125000    1.0034183    8.9828255    14.700759    25.094642   0.50303151    2588.0423 
  126000   0.83678215     6.456431     16.82767    24.460826   0.49417295    2608.4272 
  127000   0.92082236    7.9563634    16.262188    25.513458   0.52588358     2574.495 
  128000   0.53007352    7.3595977     16.34434    24.449354   0.50313311    2607.9001 
  129000     1.778707    8.0023359    14.309657    24.813299   0.47107167    2595.5315 
  130000    1.0496534     8.549382    14.967116    24.992573   0.50071076     2588.545 
  131000   0.81028623     6.126177     16.69471    23.960352   0.48086026    2619.5676 
  132000    1.0601226    10.507083    14.062231    26.060111   0.53643379     2549.705 
  133000   0.37391472    4.8975002    18.269808    23.693125   0.49269183    2622.0228 
  134000   0.64667834     10.42306    14.283863    25.616314   0.53450927    2556.0177 
  135000   0.98880729    5.9500893    16.684304    24.024904   0.48294455    2602.4528 
  136000   0.78742526    8.3219585    14.460295     23.88957   0.47505023    2603.8349 
  137000    1.1004412    8.8298982    14.830685    25.208078   0.51400549    2559.0037 
  138000   0.63516773      5.47616     16.63847    23.007835   0.46133861     2627.643 
  139000   0.59186324    9.5389761    15.356962    25.728246   0.54842648    2538.3548 
  140000   0.63570824    5.1199688    17.777963    23.791896   0.49193632    2600.3538 
  141000   0.49921782    9.4267535    14.168799    24.297578   0.49646741      2585.53 
  142000   0.82197814    6.6330004    17.544977    25.333884   0.53662006    2554.2338 
  143000   0.95578665    6.4076726    15.297783     23.04953    0.4458977    2630.3069 
  144000    1.0745913    7.2737172     16.91071    25.695572   0.53801645    2547.1008 
  145000   0.64742072    7.9371346    15.004032    23.851602    0.4768843    2607.6531 
  146000     1.205935    6.7046974    15.605747     24.00629   0.46856831    2607.1539 
  147000   0.47236616    5.8576499    19.592092    26.114006   0.57471832    2546.7228 
  148000   0.64139171    7.2125964    14.767802    22.882355   0.43926736    2657.0943 
  149000    1.3089963    7.3978478    17.454409    26.693033   0.56303341    2537.5806 
  150000   0.55337301    9.0175969    14.286366    24.082143    0.4802462    2619.8664 
  151000   0.74530862    6.4016277    16.976337    24.426055   0.49882915    2607.8659 
  152000    1.6307363    8.1336688     16.05327    26.480162    0.5402403    2544.1076 
  153000    1.3349263    6.1766336    14.419623    22.473496   0.40792316    2677.1412 
  154000   0.85798138    9.7383323    16.224774    27.169643    0.5864913    2527.7139 
  155000     1.546192    6.5395326    14.769209    23.483074    0.4336421    2642.8249 
  156000    1.3999612    7.0642693    16.089248    25.122213   0.49981314    2587.9518 
  157000     1.515585    7.8216742    15.703578    25.656544    0.5135972    2571.5666 
  158000    1.2579409    7.0373977    14.575537    23.381914   0.43720533    2645.5845 
  159000    0.8019342    8.6663856    16.975653    26.769758   0.58061751    2536.0782 
  160000     1.144362    4.8857787    16.439554    22.934592   0.43793399    2656.4276 
  161000    1.1114239    10.866369    13.768493    26.197803   0.53657569    2547.5958 
  162000   0.68234187    5.7511467      17.9151     24.62579   0.51455455    2596.8143 
  163000   0.98594306    9.1308507    13.927921    24.445254   0.47937197    2602.2067 
  164000    1.4461107     6.078505    17.316667    25.428765   0.51666532    2568.4079 
  165000    1.5101703    6.1434928    14.930209    23.197379    0.4318652     2636.118 
  166000    1.2915775    8.4772014    15.022496    25.315979   0.51052587    2562.8566 
  167000   0.58408046    5.7025326     17.27119    23.795086   0.48990691    2610.6178 
  168000   0.44474952    10.428531    14.000159    25.054119   0.52110245    2566.3188 
  169000    0.5483087    5.1208459    18.812138    24.704043   0.52767939    2575.6541 
  170000   0.55554322    9.6951314    13.592003    24.068367   0.48445592    2593.8301 
  171000   0.59262181    6.8678945    16.977538    24.678807   0.51929661    2572.3137 
  172000   0.76429803    7.1476786    15.749275    23.971747   0.48791265    2592.3058 
  173000   0.43835836     7.084345    16.489251    24.190038   0.50482539    2584.7055 
  174000   0.47712593    8.7955624    15.236146    24.702667   0.51716888    2569.0883 
  175000   0.84357858    8.3777198    14.147032    23.711034   0.46786757    2602.0706 
  176000   0.37803062    6.2540575    17.995034    24.780697   0.53214381    2570.0638 
  177000   0.95634669    8.0956864    14.986905    24.427454   0.49084346    2585.0263 
  178000   0.84970391    6.1799615    16.722639    24.097497   0.48931557    2600.5217 
  179000   0.70976671    10.115005    14.429195    25.542309   0.52981538    2560.3957 
  180000   0.57367497     6.094219    16.981261     23.88221   0.48638349    2619.7448 
  181000    1.8376756    7.3620342    15.505637    25.451902   0.49654745    2573.2274 
  182000    1.4078146    6.9467031    15.420945    24.347387   0.47099647    2611.4142 
  183000   0.93891425    8.4434288     15.08233    24.846107   0.49993319    2597.2276 
  184000    1.9234644    7.3217387    15.103748    25.130359   0.47995063    2589.6495 
  185000    1.1133387    6.2196995    16.810508     24.59584   0.48987737    2607.8263 
  186000    1.9680415    7.3744323    15.185511    25.327502   0.48458705    2584.8947 
  187000    1.1114598    7.3724765    15.591807    24.527274   0.48235996    2610.4368 
  188000   0.77989213    8.3907924     15.77082    25.258336   0.52283336    2586.8078 
  189000    1.2251189    5.1538807    17.456323    24.333027    0.4841506    2615.8018 
  190000   0.95150196    10.058536    14.259674     25.65626   0.52124461    2572.0023 
  191000   0.95019707    5.9316019    17.508265    24.776081   0.50869336    2598.7776 
  192000    1.3629493    8.9140536    14.105414    24.936115   0.48429168    2591.3573 
  193000     1.276438    6.6629929    16.239948    24.697932   0.49192953    2597.1241 
  194000    1.2762945    5.5972881    16.366219    23.758296   0.46240297    2624.7003 
  195000     1.012509     8.858998    15.044202    25.327041   0.51737958    2569.4012 
  196000   0.67949853    5.5437358    17.889679    24.388959   0.50534632    2598.9877 
  197000   0.67222889    10.089656    13.851276    24.886253    0.5061916    2580.2139 
  198000   0.34866643    5.3549035    19.134201    24.979417    0.5418866    2574.9106 
  199000   0.94345094    8.7229139    14.072512    24.122154   0.47676945    2599.0329 
  200000   0.92795802    6.6959466    16.555867    24.556754   0.50222077    2582.5567 
  201000   0.89426739    7.1545496    16.063488    24.475601   0.49930874    2581.6405 
  202000   0.45042415    6.2444233    16.724636    23.602468   0.48383892    2609.2726 
  203000   0.76457014    7.3402331    16.938775    25.354185   0.53726051    2554.2536 
  204000    1.2248577    7.9315547    13.889092    23.543103   0.44945323    2611.8705 
  205000    0.4702351    5.9063873    18.173463    24.741118    0.5293752    2572.4975 
  206000   0.85654183    8.9772321    14.811864    24.993608   0.51254967     2564.771 
  207000   0.79814413    5.5166712    16.585615    23.224677   0.46295137    2623.1635 
  208000    1.0181791    9.7528013    15.109351    26.293967   0.55450455    2529.2858 
  209000   0.66749502     6.039658    15.961051    22.939374   0.45378729    2642.9709 
  210000    1.7023642    6.5076113    16.395671    25.297232   0.50154782    2572.2147 
  211000   0.95632125    8.5376423    15.050692    24.933161   0.49942521    2589.1263 
  212000   0.69524014    8.3158445     14.74931    24.042835    0.4807163    2622.1968 
  213000    1.5381331    8.7322207    15.459642    26.354863   0.53431125    2552.7094 
  214000    1.1216382    5.8747702    16.025124    23.477198   0.45057966    2648.2611 
  215000    1.5322627    7.1662694    16.963502    26.284516   0.53826772     2559.123 
  216000   0.90681206     6.987262    16.056308    24.318775   0.47894532    2621.8447 
  217000     1.350686    8.2727867    14.722392    24.894581   0.48445035    2604.3081 
  218000    1.4098472    6.2812438    17.546575    25.810416    0.5237467    2575.1183 
  219000    1.1132905    9.4069475    12.998721    23.971234   0.45163376    2634.5259 
  220000   0.86218408    7.0360825    18.263523    26.512052   0.57138285    2551.9731 
  221000    1.5466635    7.3560117    13.974082     23.50509   0.43169533    2641.8333 
  222000    1.2522692    7.6377329    15.538662    24.937398   0.49489605    2591.4203 
  223000    1.1133584    5.9377442    17.492121    24.995526   0.50787183    2588.6911 
  224000    1.1141699    9.0666179    13.067476    23.700896   0.44633086    2627.7431 
  225000   0.45989704    7.4327202    18.297866    26.377316   0.58110287    2542.4419 
  226000   0.93291623    9.2143087    13.261763    23.787985   0.45780639    2620.2497 
  227000   0.12385282    5.5692314    19.219768    24.963167   0.54777881    2577.3509 
  228000    0.6050438    9.9972899    14.228743    25.076875   0.52015241    2568.4024 
  229000   0.66486516     7.026455    15.018505    22.979926   0.44937426     2636.017 
  230000   0.64358279    9.1825879    16.119844     26.20747   0.56435139    2532.2663 
  231000   0.83414271    6.2633363    15.532726    22.969076   0.44769367    2635.3801 
  232000    1.0093636     6.323991     17.04944    24.792848   0.51146834    2574.6476 
  233000   0.61936364    10.605835    13.539294    25.016108    0.5142861    2568.0169 
  234000   0.92595673    4.9115033    17.096633    23.310263   0.46410848    2622.7437 
  235000     0.395839    11.328333    14.439111    26.324093   0.57093723    2528.3735 
  236000    0.6675944    5.2172313    16.914222    23.070258   0.45858381    2636.2787 
  237000    1.0867461     9.367592    14.823203    25.719032   0.52698159    2557.7744 
  238000    1.5155639    6.5605745    15.668441    24.360277   0.47135664    2608.2861 
  239000    1.3882277    5.5482627    16.607197    24.107655    0.4682218    2622.9667 
  240000    1.0632382    8.1848264    16.627346    26.307351   0.54504221    2557.6363 
  241000   0.98747986    7.2869393    15.262974    23.938557   0.46771984    2636.8005 
  242000    1.1662393    10.305476    14.066005    26.011505    0.5248745     2572.201 
  243000    1.6675494    6.6785997    15.681294    24.704885   0.47326232    2614.2413 
  244000   0.74638638      6.95337    16.887104     24.89008   0.51430499     2607.327 
  245000    1.1944341    7.6312582    16.520482    25.831413    0.5247315    2576.8713 
  246000    1.3403777      7.81331    14.649949    24.348165    0.4648943    2623.4041 
  247000      1.33769    5.4398672     18.11453    25.435524   0.51629383    2585.7421 
  248000   0.81420882    9.6318088     14.48418     25.26097   0.51023178    2587.5036 
  249000   0.82625751    6.4866916    16.859073    24.507689   0.50121157    2607.8582 
  250000     1.515662    7.5009185    15.408203    25.040521    0.4926865    2585.5345 
  251000    1.2687829    7.0526555     15.07229    23.909172   0.45762022    2619.6171 
  252000    1.2650527    6.3148469    17.239451    25.333278    0.5168332    2571.9831 
  253000    1.0705455    8.7047927    14.111557    24.321804   0.47549433    2601.7446 
  254000    0.4074901    6.7465833     17.26036    24.579976   0.51990954    2590.0863 
  255000     1.018145    10.158797    13.907387     25.49795   0.51936463    2558.0396 
  256000   0.40706398    4.5596172     18.31999    23.452041    0.4879346    2623.4508 
  257000    1.1261884    8.5715121    15.629142    25.784356   0.53415557     2548.107 
  258000    1.2265546    7.1470722    14.453594    23.325509   0.44331963    2627.3225 
  259000    0.8113942    8.3757375    15.627061    25.143821   0.52094797     2569.234 
  260000    1.2175811    7.5508388    15.258631    24.521693   0.48654294    2589.7229 
  261000    1.1602611     5.164801    16.787877    23.584295   0.46352324    2620.3915 
  262000   0.57332829    10.920775    14.493518    26.220536   0.55996748    2539.3119 
  263000   0.87547482    4.8792758    17.134875    23.245288   0.45912811    2638.3285 
  264000   0.69487151    10.170983    15.237483    26.385629    0.5596923    2543.9548 
  265000    1.1773996    5.2070056    17.474335    24.337059   0.48384861    2616.9846 
  266000   0.98457034    8.5703049    14.819457    24.774314   0.49143337    2611.4927 
  267000    1.9677351    7.7895495    15.131154    25.687831   0.49458553     2587.566 
  268000   0.90166327    6.3723674    16.365464    24.005796   0.47307432    2644.0456 
  269000   0.57588349     8.555305    17.025845    26.390986   0.55724836    2567.0543 
  270000    1.4882928    6.5001339     16.25271    24.845756   0.48406934    2616.3223 
  271000    1.0828981    9.2246372    14.039431    24.786894   0.48439534    2617.5616 
  272000    1.1174618    8.0062732    16.416877     25.99458   0.53578447    2576.9809 
  273000   0.53432335    7.1191955    16.396081    24.266669   0.49612514    2629.1822 
  274000    1.4363733    7.8062858    16.014632    25.840818   0.51712849    2574.8208 
  275000    1.3655795    8.1684632    14.695346    24.784155   0.48318519    2604.4741 
  276000   0.96140269    5.1069607    17.813895    24.272828   0.48990666    2616.3113 
  277000   0.17357303    9.7752033     16.29099     26.31028   0.57388021    2547.7178 
  278000   0.86760052    5.5466674    16.626544    23.393275   0.46253258     2638.794 
  279000    1.5505865    7.3069788    15.952338    25.439829   0.50834471    2571.1415 
  280000    1.0219382    7.7808399    15.063849     24.28179   0.47721713    2606.2066 
  281000   0.90964865    5.4162813    17.695249    24.390724    0.4978464     2600.242 
  282000   0.92729577    9.1356624     15.37179    25.811462   0.53697522    2554.0564 
  283000   0.39955607    5.9303073    16.768807     23.26099   0.47371182    2634.6641 
  284000   0.59734841     11.07341    14.494461    26.407892   0.56696695    2533.7823 
  285000   0.84620554    5.0617163    17.099862    23.351555   0.46465503    2631.2514 
  286000    1.4252376    8.5273094    14.839324    25.370873   0.50612659    2566.8918 
  287000    1.1130038    7.7541803    15.226118     24.54546   0.48989866    2593.4188 
  288000    1.0342302    7.3672697    14.753827    23.575483   0.45771339    2625.6915 
  289000    1.6075005    8.3678339    15.524373    26.152755   0.52969095    2544.8979 
  290000    1.1028229    4.7852675    16.587847    22.923959    0.4410468    2650.0365 
  291000   0.40604741    11.674017    14.199842    26.444863   0.56813905    2538.6547 
  292000   0.73239268    5.2096391    17.959788    24.199354    0.4945495     2615.983 
  293000   0.76753648    9.3309896    14.860901    25.271239    0.5123266    2591.0241 
  294000   0.95081118    5.8611252    18.940901    26.139104   0.55539554     2571.458 
  295000    1.2484522    7.3248183    14.174983    23.255437   0.42548978    2669.2125 
  296000    1.7149614    8.9090428    15.087398    26.408106   0.52174509    2569.1159 
  297000    1.2845982    6.4397805    16.244888    24.491134   0.47801213    2633.7066 
  298000   0.43914918    9.8371391    15.063874    25.518567   0.52331941    2599.9311 
  299000    1.4053526    5.8979593    18.558149    26.432385    0.5467322    2571.6067 
  300000    1.9384322    7.0782033    13.582984    23.387107   0.40943897    2668.5422 
  301000    1.1329869    8.3410466    16.903713    26.838022   0.56041533    2553.1172 
  302000    1.2469993    7.0611823    15.515571    24.330346   0.47124036    2626.4476 
  303000    1.8106485    7.5185288    14.738564    24.803317   0.46871907    2607.2132 
  304000   0.97897321    9.0789358    15.569018    26.024634    0.5414071    2565.4395 
  305000    1.1371359    5.8870603     15.82491    23.311067   0.44319568    2649.9386 
  306000   0.89500042     7.925735    17.414203    26.598533   0.56617607    2541.3878 
  307000    1.4186529    5.8012277     15.95526    23.751468    0.4538249    2628.5631 
  308000    1.2919567    6.8958771    15.817361    24.530052   0.48184771    2601.5587 
  309000   0.38372749    9.5651128     15.58278    25.687509   0.54386756    2563.9702 
  310000   0.61926392    4.9325978    17.829554    23.632992   0.48305821    2628.2311 
  311000   0.89242332    9.0545985    15.896408    26.205977   0.55313331     2544.987 
  312000      1.10892    5.8890825    16.044478    23.492979   0.45657027    2631.0828 
  313000   0.31550472    10.763915    14.335647     25.54324   0.54052783     2564.893 
  314000    1.0299645    7.0782951     15.93654    24.463222   0.49189631     2598.774 
  315000   0.96539141    6.6716502    16.351133    24.380365   0.49030315    2601.6754 
  316000    1.2421004    8.3056629    15.268263    25.320629   0.51109494    2571.7144 
  317000     1.083422    6.7451242    15.259126    23.527812   0.45576323    2629.2168 
  318000    1.0738102    9.6743383    14.586073    25.770457    0.5287354    2557.2823 
  319000    0.5021545    5.4840318    17.804727    23.994914   0.49502836    2615.0723 
  320000   0.92178752    10.532763    13.581352    25.410379   0.51323325    2571.2319 
  321000   0.59853071    6.3449182    17.668976    24.855578   0.52134308    2591.3808 
  322000   0.85653718    8.6070775    14.813239    24.624822   0.49146813    2602.2546 
  323000     1.030663    6.2123434     17.64702    25.308733   0.52401517    2585.8642 
  324000    1.2077905     7.001721    15.183511    23.883687   0.45726866    2635.3394 
  325000    1.6225225    9.4361043    13.647416    25.365193   0.48630846    2591.1456 
  326000    0.3802773    5.8107385    18.929369    25.274872   0.53865826    2603.5444 
  327000    1.0559226    10.570437    13.644216    25.699544    0.5069277    2594.6139 
  328000     1.299798    4.8657756    19.142123    25.835739   0.53072159     2592.546 
  329000    1.2946973    8.4359912    14.295335    24.551994   0.46999835    2633.1296 
  330000    1.3543583    7.6257983    16.083363    25.613727   0.50589792    2596.4716 
  331000    1.9211093    6.9215324    15.809069    25.432162   0.48582492    2598.7032 
  332000    1.6010326    7.3848923    14.762243    24.398588   0.45886211    2629.2648 
  333000    1.5075098    8.7779581     15.24011    26.138004   0.52570113    2569.4298 
  334000   0.63575776    8.3635797    14.764615    24.022229   0.47500912    2631.8448 
  335000    1.4299385    7.5274771    16.090618    25.628946    0.5136115    2575.1662 
  336000    1.7711568    6.0540274    16.222984    24.767701   0.47801235    2598.2711 
  337000   0.87558627      6.81525    15.916915    23.963458   0.47290248    2621.4962 
  338000   0.62483567    10.491568    14.607085    25.977328   0.54390564    2555.2517 
  339000   0.79275654    5.1094782    17.472701    23.696993   0.47893994     2626.826 
  340000   0.85609928    9.3748777    15.304995    25.883763    0.5379492     2555.868 
  341000   0.77272585    5.5496487    17.504889    24.141184    0.4917534    2610.7063 
  342000    1.3259995    8.5136262    14.230308    24.608621   0.47849233     2595.531 
  343000   0.63512369    8.9825769    15.154433    25.030153   0.51672725    2581.7658 
  344000   0.58101577    6.2088125    16.981682    24.007548   0.48848324    2614.2154 
  345000     1.410665     8.664091    14.684915    25.332753   0.50334693     2570.863 
  346000   0.42580092    6.2537132    17.147966    24.000462   0.49709209    2614.3344 
  347000   0.86139055    10.490692    13.804128    25.506151   0.52111617     2566.295 
  348000   0.41134194    5.3171256    18.527103    24.422678   0.51547977    2601.6079 
  349000   0.59974748    9.7884061    14.482051    25.113852   0.51605211    2580.4816 
  350000   0.98128526    7.5506392    15.688893    24.619465    0.4960843    2597.5964 
  351000   0.68938046    8.6876133    14.976517    24.633572   0.50072043    2598.1497 
  352000   0.78113792    6.9397619    16.883006    24.921244   0.51499694    2591.1549 
  353000    1.6857653    5.8095938    16.279424    24.459626   0.47032301    2608.9172 
  354000   0.76965236    10.537323    13.589801    25.209448   0.51018981    2588.0667 
  355000     0.809987    6.6245829    16.795001    24.558628   0.50043961    2614.3812 
  356000   0.87897879    10.807041     14.16629    26.209395   0.53572721    2566.9548 
  357000    1.0047339    4.8315912    18.688882    24.933381   0.51073327    2612.3815 
  358000    1.0259473    7.9179178    15.450214     24.81087    0.4929541    2619.9912 
  359000    2.0022185    8.3890627    14.439538     25.64422   0.48492523     2596.006 
  360000    1.7164964    6.9975585    15.904752    25.316133    0.4872322    2607.7371 
  361000   0.59133609    8.3970681    15.895725    25.124359   0.51637384      2613.57 
  362000    1.4812184    7.0353052    16.585938    25.704206    0.5100115    2593.0028 
  363000    1.2791955    7.7723997    15.279126    24.850395   0.48169009     2616.288 
  364000    1.3406025    7.6095893    15.896657    25.391469   0.50713513    2593.5029 
  365000    1.7372272    6.3456067    16.117283    24.905866   0.48202245    2602.3061 
  366000    1.5552907    6.9456915    15.438935    24.571754   0.47215095    2606.5361 
  367000    1.0289026    9.7890714    14.062322    25.298288   0.50840396    2578.4634 
  368000   0.82713781    5.4713726     17.56587    24.200405   0.49470288    2610.2188 
  369000   0.36287954    9.8898675    15.244189    25.644356   0.54295886    2561.3579 
  370000    1.1104233    5.5132089    17.018534    24.093275   0.48111307    2610.4711 
  371000    1.3895967    7.5782405    14.903708    24.436069   0.47544425    2598.8705 
  372000    1.1361923     8.860903    14.331117    24.789791   0.48930649    2586.9034 
  373000   0.85562035    5.8887668    17.116992    24.208974   0.49065564    2605.7504 
  374000    1.1128641    9.5157974     14.30383    25.384592   0.51192247    2568.0165 
  375000    1.0512618    5.0202636    17.706371    24.204971   0.48825002    2606.2901 
  376000   0.62165641    10.190709    14.261903    25.326817   0.52617873    2570.9078 
  377000   0.77559695    5.1958048    18.019644    24.306132    0.5014918    2604.3918 
  378000    1.0692064    8.0041556    15.702881    25.210608   0.51069044    2576.0677 
  379000    1.3295986    7.2684135    15.220784    24.358945   0.47494359     2604.946 
  380000   0.79198901    8.1944302    15.054591    24.362756   0.48875726    2606.3264 
  381000   0.94116842    9.0831557    14.831872    25.238546    0.5112873    2579.7432 
  382000    1.0914111    5.3728843    17.549903    24.457584   0.49403572    2607.6905 
  383000    1.0883169    9.2421944    14.619237    25.391877    0.5114095    2580.8776 
  384000   0.86051598    6.2290695    17.064582    24.503752   0.49616137    2612.4862 
  385000   0.63612581    10.460778    14.575567    25.930897   0.53747695     2570.311 
  386000   0.96122216    5.4474416    18.070085    24.869245   0.50951712    2608.3035 
  387000    1.6628773    7.0237174    15.292068    24.654206    0.4683474    2617.9134 
  388000    1.7496176    8.4341073    14.331402    25.225909   0.47952297    2602.3737 
  389000    1.3355596    7.0246715    16.328374    25.231176   0.50274543    2606.7544 
  390000   0.75336817    10.135797    14.324735    25.519956   0.51771198    2600.1938 
  391000    1.0530582    5.9482456    17.945673    25.374782   0.51278972    2605.9551 
  392000    2.1863305    7.1299875    15.097809    25.302324   0.47217342    2607.9108 
  393000    1.4900114    7.3141931    15.883453    25.292975   0.49241391    2605.6158 
  394000   0.56295615    7.9681865     16.72481    25.484654   0.53813931     2593.823 
  395000    1.6299053    5.9278007    16.370748    24.590603    0.4741854     2615.646 
  396000   0.55325401    9.7876637     14.90498    25.470658   0.52841304    2579.4011 
  397000    0.3698552    7.6797055    16.387527    24.587341   0.51616796    2600.8768 
  398000   0.92378699    8.0396444    15.584563    24.923283   0.50503994    2585.3501 
  399000    1.2612584    6.1426963    16.684558    24.600899   0.49194158    2592.7159 
  400000    1.1412531    6.9367008     15.83153    24.373118   0.48522395    2597.9946 
  401000   0.56662379    8.8738132    15.117912     24.78854   0.51418591    2583.2389 
  402000    1.0811495    5.2403497    17.282529    24.043246   0.48191935    2606.8214 
  403000   0.34455366    9.7334122    15.337788    25.555729   0.54230418    2558.1208 
  404000    1.0054011    5.0939747    17.797936    24.305756   0.49582239    2598.3242 
  405000   0.83474221    8.8005028    14.557886    24.532245   0.49513944    2591.5314 
  406000   0.51070852    6.7261784    17.275053    24.719416   0.51699458    2586.4948 
  407000     1.179691    6.8916051    16.080446    24.630991   0.49233769    2590.3452 
  408000     1.087302    7.4001383    15.647065    24.576222   0.49232033    2594.0656 
  409000    1.0523852    7.2637193    15.584827    24.328463   0.48107096    2604.0235 
  410000    1.2957768    9.5279198    13.615056    24.965162   0.48821214    2585.4736 
  411000   0.54155934    4.3553709    19.725192    24.842131   0.53096469    2593.6796 
  412000    1.1596941    9.4602525     14.34452    25.435592   0.50793852    2578.2978 
  413000    0.7837981    6.1192313     17.36573    24.587178   0.50386767    2609.5767 
  414000    1.2001954    9.4254158    14.450502    25.563693   0.51048065    2580.3706 
  415000    1.9490903    5.7154109    15.696159    24.152478   0.44630161    2630.4637 
  416000    1.3195174    7.1684781    16.167187    25.191237   0.50011283    2600.2964 
  417000    1.4551109    9.0233413    14.005196    25.074787    0.4811276    2605.7197 
  418000   0.27701517    5.4239372    19.433827    25.247317   0.54171821    2602.0751 
  419000    1.3000453    10.319583    13.743599    25.891371   0.51226802    2581.6166 
  420000    1.5025663    5.2991929    17.007573     24.41975   0.47170877    2628.1763 
  421000    1.4349206    8.3811796    15.426729    25.825766   0.51583159    2580.5956 
  422000   0.73760035    8.5403358    14.492477    24.070064   0.46745787     2632.273 
  423000    1.1472356    7.0944768    17.245859    25.953636   0.54140453    2564.9229 
  424000   0.63280579    6.5741235    16.727561    24.191568   0.49274772    2611.0793 
  425000     1.359929    7.0819792    15.411928    24.406307   0.47647094    2597.1814 
  426000   0.55487604    9.8125437     15.16169    25.754529   0.54851192    2551.6895 
  427000    1.1564395    6.4350116     14.38522    22.446475   0.41424388    2658.4881 
  428000   0.79460752    8.6599929    17.189381     26.96679    0.5905455     2512.634 
  429000   0.50201274    5.9283049    16.338257    22.972517   0.46041868     2638.017 
  430000   0.28561045    8.9302928    15.433889    24.765822   0.52494574    2578.2099 
  431000    1.3083374    6.4128655    17.268524    25.521239   0.52578982    2555.9441 
  432000   0.75436424    6.5996611    15.013328    22.673814   0.43262946    2652.2354 
  433000   0.77102949    8.2132592    17.731908    27.029427    0.5945852     2515.232 
  434000    1.3748783    5.8873046    14.654086    22.474813   0.41039747    2659.9129 
  435000    1.4947978    8.8064847    14.581708    25.490252    0.5074262    2560.1663 
  436000   0.71901868    6.1427294    17.932965    25.086815   0.53056152    2577.1963 
  437000   0.90333195    6.9016109    15.149667    23.321589   0.45150242    2641.3022 
  438000    1.2475212    8.5626558    16.658681    26.975663   0.56941434    2530.1359 
  439000    1.0582251    8.0830607    13.602725    23.173915   0.43082721    2653.5123 
  440000   0.96354355    7.0384675    17.393632    25.787083   0.53748884    2570.1603 
  441000    1.4702304    7.8353045    15.477829    25.380645   0.50262212    2584.5879 
  442000    1.0430169    6.8562213    15.310811    23.633775   0.45569736    2643.2069 
  443000    1.5696774    8.8775072    15.532331    26.617197   0.53983263     2550.219 
  444000   0.83006603    7.4868083    14.929177    23.583266   0.45746377    2648.4539 
  445000    1.0668379    6.6528465    17.490885    25.643972   0.53189899    2580.5713 
  446000     0.286057    11.010249    14.241239    25.653756   0.53673207    2578.6731 
  447000   0.96691889    5.1296913    17.367873    23.857294   0.47417954    2634.5544 
  448000   0.56805839    10.310943    15.709527    26.819302   0.57854343    2538.1932 
  449000   0.86202619    5.1827915    16.838753    23.233769   0.45596338    2651.7036 
  450000     1.565368    7.9106039    15.535903    25.647806   0.50860516    2571.4424 
  451000    1.2842312    8.4920679    13.865147    24.163165   0.46045841    2615.2911 
  452000   0.78614095    5.3180956    17.564112    23.987718   0.48957805    2613.5672 
  453000    0.2708264    11.131448    15.026256    26.538554   0.57971457    2526.9124 
  454000   0.63431358    4.0820798    17.918938    22.893021   0.46172691    2638.0596 
  455000     1.076925    9.0130047    15.152965    25.680396   0.53239636    2544.1402 
  456000   0.78742111     6.860456    15.564625    23.532392   0.46824127    2609.4696 
  457000    1.1918674    6.8974591     15.78747    24.360993   0.48745687    2581.5746 
  458000    1.1286698    7.4253321    15.835258    24.847782   0.50499921    2565.9083 
  459000   0.52608913    7.6341756    15.028162     23.40215   0.47037013    2612.7032 
  460000    1.1941115    8.7855949    14.856437    25.321251   0.51661172    2552.0507 
  461000   0.29206379    5.5902789    17.642671    23.643665   0.49571348    2606.7708 
  462000   0.93364682    7.9346642    15.633408    24.881013   0.51094952    2568.6809 
  463000   0.51029929    7.3323962     16.33682    24.386825   0.50556856    2587.0072 
  464000    1.2093222    7.9805378    14.528202     24.20935   0.47327953    2595.6409 
  465000   0.54081758    7.0469261      17.2796     25.08705   0.53240145    2570.8279 
  466000    1.4718885    7.9377816    14.095858    24.103483   0.45871072    2605.0064 
  467000   0.62934055    8.2950846    15.646357    24.826452   0.51621735    2584.0994 
  468000   0.86676274    7.3776657    15.817032    24.413583   0.49162552    2599.8952 
  469000    1.3613983    7.3881359    15.294305    24.596907   0.47974124     2597.152 
  470000    1.1251945    5.6099314    18.131884     25.32412   0.52445171    2577.6394 
  471000     1.001342    8.6204409    14.351509    24.380087   0.47721612    2610.2846 
  472000   0.94388324    7.5258264    16.450847    25.304009   0.51734003    2582.2671 
  473000    1.5234983    5.8986887    16.820663    24.861771    0.4892047     2597.468 
  474000    1.3478195    5.3938971    17.035267    24.324535   0.47657643    2615.7592 
  475000    1.0777635    10.691823    13.840056    26.047484   0.53056756    2562.1145 
  476000   0.97270858    7.6965126    14.865101    23.929485   0.46648339    2630.5171 
  477000    1.0967557    8.5315053    15.526406    25.600224   0.52097768    2577.0402 
  478000    1.3113165    6.3616896    16.575585    24.781313   0.49183444    2602.6105 
  479000    1.4914386    6.6152067    15.643972    24.356515   0.46753999    2615.2315 
  480000    1.4324648    8.7719122    15.075507    25.861823   0.52023826    2565.5731 
  481000   0.61303326    4.7291583    17.905164      23.4964     0.473185    2639.0792 
  482000   0.44228931    12.571238    13.484889    26.678096   0.57205943    2533.6824 
  483000   0.50951518    5.4694215     17.68275    23.868677   0.49447917    2618.0492 
  484000      1.23445    9.2815924    13.787445    24.804983   0.48667217    2584.1457 
  485000    1.2012826    6.6357285    16.414503    24.739536   0.49908369     2580.906 
  486000    1.1675112    5.3487635    15.939978    22.930554    0.4394965    2635.2744 
  487000   0.69715737    9.4348776    15.609834    26.025089   0.55609749    2531.7726 
  488000   0.44189249    6.1096016    16.460367     23.19138   0.47342649    2621.8025 
  489000    0.8521529     9.657356    14.043589    24.899285   0.50777455    2566.3159 
  490000   0.81449803    5.9423065     17.82248    24.910175   0.52370067    2566.7311 
  491000   0.58739574    8.7325946    13.695239    23.253859   0.45669056      2622.73 
  492000   0.54191073    8.0723106    17.218231    26.052604   0.56855805    2534.9895 
  493000    1.3023543    7.0029486    14.232182    23.066566   0.43222889    2629.0446 
  494000   0.29703353    6.5775094    17.724325    24.719538   0.53023866    2575.9217 
  495000   0.91070192    7.8936356    15.986309    25.160619   0.52218086    2566.2315 
  496000   0.68960633    8.7647487     13.25022    22.984728   0.43938742    2641.3527 
  497000   0.69154072    7.3361502    18.305212    26.613841   0.58202916    2530.4937 
  498000    1.0968602    7.3857582    14.426616    23.354834   0.44250799    2636.3145 
  499000   0.51637387    6.1798302    18.199777    25.105758   0.53820577    2577.9097 
  500000   0.35175562    9.9545004    15.182621    25.631778   0.54372161    2561.5299 
  501000   0.81402921    6.0147423    15.764181    22.923652   0.44057068    2653.9029 
  502000    1.5642953    7.2976571      17.3124    26.809848   0.55731271     2532.101 
  503000     1.358367    6.7793056    14.494243    23.183752   0.42809943    2649.2516 
  504000   0.73023395    9.4033218    15.444066    25.874279   0.54536936    2561.1846 
  505000    1.3358741    7.7244352    14.920827    24.523835   0.47751062    2603.2525 
  506000    1.0490347    7.0636097     15.69498    24.233795   0.47663578      2614.55 
  507000    1.6618204    6.6921912    17.182657    26.211783   0.53400444    2552.8594 
  508000   0.43683714    7.2115249    15.464184    23.290011   0.45775579    2646.1226 
  509000    1.1772639    8.9890858    15.354898    25.999511   0.53334838    2557.7352 
  510000   0.78721179    5.2475777    17.768565    24.123159   0.49261787    2618.0471 
  511000    1.1060913    9.5082633    14.184064    25.247768   0.50190156    2581.8699 
  512000   0.96247636    6.1935439    17.769318    25.316344   0.52671922    2579.6809 
  513000     1.376599    8.2986253    13.914634    24.149102   0.45665234    2616.6954 
  514000    1.3697147    7.3566196    16.053222    25.336003   0.50765386    2577.4958 
  515000     1.039687    5.9390179     16.52288    23.923958   0.47457993    2620.5381 
  516000    1.5177854    8.8513678    13.985476     24.97123   0.48436676    2583.2229 
  517000   0.19867963    7.2030822    17.246231    24.728707   0.52806962    2590.6556 
  518000   0.97359859    10.099548    13.292965    24.761636   0.49042446    2586.4315 
  519000   0.39588572    5.3575888    18.977057     24.89136   0.53551108    2578.6516 
  520000     0.825355    9.0073445    14.322464    24.490464   0.49284077    2587.3401 
  521000   0.63202702    7.3748952    16.001632    24.265315   0.49989378    2591.3991 
  522000   0.62943952    8.1816719    15.639449     24.70627   0.51269363    2573.6836 
  523000   0.75941434    6.0465592    16.572874    23.687359   0.47848864    2606.0027 
  524000   0.91358657    6.5666565    16.919378    24.770765   0.51151377    2571.1459 
  525000   0.80087674    8.9819206    13.946183    24.054337   0.47849563    2593.8635 
  526000   0.63256481    5.2257457    18.200337    24.315627   0.51184645    2585.3489 
  527000   0.34251891    10.669202    14.284969    25.435838   0.53940469    2550.6403 
  528000   0.78538936    5.1563187    17.170053    23.430826   0.47143007    2617.6683 
  529000   0.78440209    8.7311688    15.659797    25.494031   0.53540115    2554.4069 
  530000   0.89324429    6.5691039    15.775919    23.601147   0.46545099    2619.9356 
  531000    1.4303944    6.3969578    16.535726    24.944176   0.49831743    2581.2664 
  532000    1.4831479    7.7645745    15.144844    24.995096   0.48961886    2584.1506 
  533000   0.57245125     7.938088    15.279606    24.022704   0.48682618     2618.874 
  534000   0.56682792    10.810881    14.500841    26.108824   0.55105045    2555.1532 
  535000    1.2136325    5.4659474    16.712354    23.884972   0.46612303    2628.3349 
  536000    1.4752704    6.5074528    16.836752    25.418804   0.51149989    2579.8507 
  537000   0.55394829    8.0477671    16.111403     24.93816   0.51018245    2595.8194 
  538000    1.0797015    8.0325794    15.047007    24.597917   0.48384809    2607.3624 
  539000    1.3825271    5.3355767    18.119395    25.399151   0.51658754     2582.081 
  540000    1.3835198    8.6229215    14.137328    24.705825   0.47396734    2603.8955 
  541000   0.79823582    7.3644088    16.776823    25.263751   0.52451885    2584.8804 
  542000   0.97062419    8.0136355    14.886608    24.265184    0.4793546    2613.9871 
  543000    1.4483578    8.0288296     14.67056    24.736142   0.48034394    2597.9888 
  544000    1.1977722    6.5651993    16.795864     25.04543   0.50707936    2587.7874 
  545000    1.0246346    8.9077841    13.993009    24.341685   0.47541461    2608.9911 
  546000   0.64460529    7.4197763    17.090505    25.416757   0.53531528    2573.3064 
  547000    1.1988579    8.1248631    14.731439    24.542196   0.48103487    2598.1052 
  548000   0.37904373     5.185332    18.885009    24.603371   0.52670073    2592.1889 
  549000    1.3715704    9.2287281    14.189485    25.346984   0.50436292    2563.9804 
  550000    1.0941412    6.1116718    15.617727    23.268034   0.44929629    2628.7565 
  551000    1.1677517    8.0959399    15.913547    25.651638   0.52982516    2549.3314 
  552000    1.1202952    6.5467659    15.248379     23.37056   0.45144531    2618.9437 
  553000    1.1392965    6.8637887    16.209952    24.675877   0.50100774     2573.393 
  554000     1.012101    8.6026012    14.709976    24.735844   0.50078064    2569.3406 
  555000   0.60213122    4.5469791    17.608761    23.002488   0.46828819     2622.721 
  556000   0.23367176    10.521941     15.59887    26.449412   0.58722274    2512.5941 
  557000   0.59182296    5.3084363    16.408141    22.548828   0.44853843    2637.3425 
  558000   0.52735165    10.189503    14.528079     25.45917   0.53882214    2545.2426 
  559000   0.87481725      6.67689    15.954659    23.861761   0.48027855    2597.3121 
  560000    1.0954051    6.5018103    15.474663    23.516887   0.46053303     2611.844 
  561000   0.80200554    8.9551712    15.893062    25.976053   0.55195373    2540.0268 
  562000   0.23700792    6.6772669    15.873518    22.884077   0.46047212    2646.2401 
  563000    1.3167981    9.7182784    14.724328    26.294354   0.53836558    2541.5667 
  564000   0.84073246    5.4636018    17.395305    24.041187   0.48586956    2616.9492 
  565000    1.5476773    7.6891547    14.729437    24.595013   0.47261953    2601.2526 
  566000   0.39558219    8.5937009     16.71162    25.861608   0.55168777    2563.5582 
  567000    1.6130795    6.0885823    15.244451    23.601427   0.43892937    2637.7513 
  568000   0.57928186    6.2460522    18.952274    26.012941   0.56348365    2560.6985 
  569000    1.4402048    8.4298536    14.084455    24.539597    0.4683989    2607.4414 
  570000   0.44834874     8.317267    15.641552    24.589309   0.50945975    2604.6282 
  571000    1.3865222    8.3910853    15.348016    25.688898   0.51562998     2568.243 
  572000    1.8603818    5.7084031    15.054006    23.378571   0.42446854    2644.7264 
  573000     1.171385    6.6055136    17.658019    25.910793    0.5408599    2564.2961 
  574000     1.169772    8.9459636    13.822239    24.413195   0.47272492    2611.3365 
  575000   0.99998969    4.8919615    18.449491    24.747688   0.50929533    2597.0839 
  576000    0.7434642    11.138458    14.049794    26.233749   0.54944883    2547.3285 
  577000   0.55529541    4.6542347    17.513432     22.94855   0.45726472    2653.4306 
  578000     1.407852    10.176945    14.696962    26.853699   0.55522988    2527.1861 
  579000    1.4749907    5.4846326    15.207125    22.765964   0.41812014    2657.5125 
  580000    1.1326958    6.0326682    17.629094    25.254616   0.51927837    2575.1782 
  581000   0.53741658    8.0319309    16.363624    25.151297   0.52415531    2577.4447 
  582000   0.98352863    6.3232561    15.648479    23.354823    0.4552492    2632.5983 
  583000   0.75228924    10.549428    14.978777    26.586113   0.56834369    2528.7707 
  584000    1.0861282    5.1605891     16.08286    22.770817   0.43542681    2649.1166 
  585000   0.84829156    8.8294178    16.056219    26.078547   0.55526296    2540.1753 
  586000   0.84909324    6.5237106    16.143952      23.8617    0.4793652    2608.9845 
  587000    1.0182466    8.4597169    14.439538    24.331164    0.4803026    2593.8174 
  588000   0.85168722    6.6297379    17.674613    25.502036   0.54000302    2555.8103 
  589000    0.8282096    7.5553241    14.372589    23.092583   0.44750016    2633.6265 
  590000    0.5104262    9.5331131    15.569832    25.820732    0.5563218    2544.9199 
  591000   0.89179309    7.0417638    15.221333     23.51718   0.46255585    2616.5108 
  592000    1.2633067    7.3471713    15.328871    24.452567   0.48404335    2587.1643 
  593000   0.51800549    5.7954239     18.62204    25.145909   0.54096262    2569.4326 
  594000   0.98632025    9.0247175    13.510578    23.922308   0.46222503    2613.2538 
  595000   0.68710753    7.1244061    17.661389    25.752041    0.5488093    2559.0454 
  596000     1.580711    7.4638382    14.391517     24.07823   0.45314506    2615.4018 
  597000   0.76086676    5.6418212    18.085697    24.797487   0.51251244    2595.7505 
  598000    1.2401752    9.1969577    14.810756     25.75171   0.51720452    2570.1051 
  599000    1.4073587    6.3350813    15.410959    23.725138   0.44828985    2639.7246 
  600000    1.6649288    7.0385412    16.687585    26.067433   0.52198593    2567.4866 
  601000    1.1752453    6.6879009    15.928165    24.268755   0.47017741    2626.9254 
  602000    1.7833732    5.7336856    16.637954    24.879508   0.47974539    2606.7061 
  603000    1.0802637    10.332226    14.138491    25.989839   0.52441279    2572.1124 
  604000    1.1007149    4.9007988    17.487551     23.93623   0.47194498    2636.6637 
  605000   0.22990375    11.175407    15.349828    26.848538   0.58552761    2541.8867 
  606000   0.79351284    5.1029982    17.513321    23.732197   0.47521993    2639.2541 
  607000    0.8945145    10.684224    13.975806    25.917941    0.5311601    2566.3664 
  608000    1.2457456    6.9062377    15.669031    24.327099   0.47636699     2613.435 
  609000    1.3859653    6.8423944     15.40632    24.197729   0.46665896    2614.5896 
  610000   0.89576389    8.2334504    16.045093    25.538211   0.52643437     2567.418 
  611000   0.61305222    6.2929788    16.658936    23.814019   0.48373472    2618.6588 
  612000    1.3674746     9.135186    14.313192    25.371389   0.50562543    2565.4193 
  613000   0.85621046    6.3218972     16.73236    24.258303   0.49237454    2597.7831 
  614000   0.93227239    8.2898158     14.86629    24.467113   0.49249383    2588.8923 
  615000   0.52286931    7.7563331    16.315792     24.80741   0.51848399    2576.9222 
  616000   0.93726573    7.9090096     14.96332     24.19036   0.48064091    2596.2236 
  617000   0.37483927    5.6549715    18.652438    24.834528   0.53585033    2575.3079 
  618000    1.1403331     8.106414     14.76445    24.474457   0.48555505    2586.8905 
  619000    0.6585855    8.1345444    15.134247    24.194927   0.49405968    2596.1891 
  620000   0.59418759     8.757338    15.473985    25.066899    0.5221629    2568.7717 
  621000    1.5724524    6.3406552    15.235859    23.787775   0.45205902    2611.4673 
  622000   0.80676685    5.8268027    17.538414    24.499732   0.50824037    2589.6702 
  623000   0.85289949     10.43366    13.400063    25.033113   0.50581974    2573.7486 
  624000   0.51950589    5.5449968    17.872397    24.147949   0.50397386    2603.3242 
  625000     0.824514    11.055152    13.601561    25.816186   0.53406703    2551.0107 
  626000   0.54768974    4.8960481    17.939368    23.605605   0.48165949    2624.7356 
  627000    1.0664393    9.4974509    14.629825    25.626956   0.52218848    2561.9623 
  628000    1.4309002    7.1221217    14.795478    23.929803   0.45614522    2618.8772 
  629000   0.99116959    6.7274194    16.547194    24.668445   0.49774657    2597.5013 
  630000   0.88271532    7.7420332    16.356283    25.339635   0.52045144    2578.4322 
  631000    1.5218698     5.658878    16.156642    23.955649   0.45743735    2625.2062 
  632000   0.40073384    11.083818    14.386817    26.034167   0.55021355    2560.6447 
  633000    1.4514255    5.3345666     16.69791    24.073544   0.46337456    2625.4035 
  634000   0.85165274    8.7762149    15.710801    25.684653   0.53117576    2575.1371 
  635000    1.2346691    5.9396952    17.158761     24.83471   0.49496527    2604.2625 
  636000   0.72155364    9.3731467    14.624638     25.01247   0.50706282     2599.895 
  637000    1.0884465    5.5225633    18.487792    25.540983   0.53108883    2583.3324 
  638000    1.3216611    7.3047774    15.264151    24.427514   0.46901084    2618.5516 
  639000    1.0212039     8.638181    15.236352    25.310601   0.51261016    2588.2399 
  640000    1.1950967    7.8068497    15.078963    24.566418    0.4839027    2609.8916 
  641000    1.5859934    8.4929343    13.935749    24.658986   0.46845072    2603.8397 
  642000   0.55947267    6.5767113     18.48898     25.85245   0.55978946    2561.9317 
  643000    1.7791913    6.4295405     14.52002    23.451548   0.42845715    2634.3892 
  644000    0.2852054    8.7333559    16.582164     25.71659   0.55463398    2556.3689 
  645000    1.4072699    8.4291199    13.811637     24.21973   0.46393437    2598.8377 
  646000   0.69723631    5.1589963    17.807309    23.946794   0.49429383    2603.6509 
  647000    1.4326109    8.6794316    15.278042    25.972083   0.53178042    2537.8827 
  648000   0.37948875    6.2659615    15.604677    22.404295   0.44097607    2653.9884 
  649000   0.90955081    9.1144715     16.20471    26.598237   0.57157742    2520.2263 
  650000    1.3203621    6.2278939    14.946214    23.030867   0.43439245    2632.7796 
  651000    1.1375689    6.5962983    15.916313    24.112317   0.47786999     2597.781 
  652000   0.75759126    10.671033    14.129279    25.865674   0.54165028    2545.3621 
  653000   0.59139187    4.3754628    17.146223    22.353331   0.44267005    2659.1992 
  654000   0.23971074    12.017562    15.428161    27.782816   0.62849298     2489.904 
  655000   0.78403575    4.5855257     16.78242    22.470496   0.43610387    2661.7071 
  656000    1.0795309    9.5708231    14.562378    25.651291   0.52308836    2564.0395 
  657000    1.5110935    7.4854325     15.20499    24.815397   0.48388086    2593.6865 
  658000    1.1100533    6.0561938    15.660307    23.277513   0.44473364    2646.8898 
  659000    1.5738494    9.3638038    15.456062    27.033091   0.55614066    2530.6454 
  660000   0.96915387     5.753968    15.891753    23.008593   0.44011271    2660.5982 
  661000     1.171201    10.543877    14.108063    26.298941   0.53847186    2554.4541 
  662000    1.1833806    6.1179634    16.825356    24.607449   0.49132813     2607.726 
  663000    1.1816181    7.2436951    15.469343    24.374688   0.47600876    2616.2389 
  664000   0.95736695    8.7440947    16.005642    26.096034   0.53942574    2562.1041 
  665000    1.2524893    7.6469657    14.396702    23.804981   0.45139271    2634.9329 
  666000    0.9413714     6.251408    18.122843    25.698055   0.54016022    2572.4112 
  667000     1.448179    7.6903562    15.238921    24.965779   0.48708687    2593.7773 
  668000   0.40527178    8.7862658    14.969719    24.325899   0.50003484    2612.7163 
  669000    1.2412342    8.2553064    15.179127    25.179919   0.50437926     2584.213 
  670000    1.7301962    8.0024463    13.772971    24.208506   0.44973029    2614.2841 
  671000   0.89085389     5.990815    18.112878    25.356457    0.5330583    2576.5232 
  672000   0.97332569    8.7563048    14.635529    24.760573   0.49732032     2593.611 
  673000   0.68715764    6.0442726    17.339473    24.350061   0.49828581    2604.8765 
  674000    1.0337609    8.9755792    15.240278    25.669583   0.52665774    2560.8666 
  675000   0.69123798    5.0629375    17.696622    23.731613   0.48309823    2621.7299 
  676000    1.2756185    9.0381421    14.655884    25.487864   0.51192969    2563.6216 
  677000   0.68216273     7.988158    14.865501    23.812951   0.47198029    2615.8066 
  678000   0.74293727    6.4061386    17.304061    24.754955   0.51568274    2582.9788 
  679000   0.68605779    7.8096789    16.109171    24.883619   0.51740296    2575.3703 
  680000   0.91695377     6.012952    16.243968    23.546386   0.46642091    2614.4544 
  681000   0.15528225    10.446436    14.925741    25.590543   0.55407845    2545.2365 
  682000   0.83309212    5.2659443    16.862394    23.299874    0.4674784    2614.5228 
  683000   0.62179044     8.884263    15.397126    25.155782   0.52931082    2552.4237 
  684000    1.0387948    6.2634051    16.208055    23.932265   0.48175562    2589.6156 
  685000   0.45728374    8.8324988    14.394743    23.870298   0.48853705     2591.006 
  686000    1.0074631    7.3216556     15.97608    24.714481    0.5082046     2563.939 
  687000   0.74009757    5.8587253    16.622554    23.522042   0.47765243    2602.6357 
  688000   0.30006799     9.479113    14.954682    24.855765   0.52740505    2561.0343 
  689000   0.50528506    7.3463157    15.853577    23.910449   0.49427297    2594.2126 
  690000   0.90434973    8.5899451    14.834322    24.696009   0.50217195     2573.001 
  691000   0.53435839     5.410688    18.212986    24.375116   0.51619694    2587.3571 
  692000   0.74539057    8.8855315     14.86058    24.794317   0.50678332    2577.9839 
  693000   0.99953369    7.2186538    15.765354    24.389602   0.49088455    2594.4059 
  694000    1.3632623    7.0805627    15.404351    24.402001   0.47759503    2596.3843 
  695000   0.35398437    7.0483911    17.321023    24.867205   0.52395529    2583.6075 
  696000    1.2931425    6.6805366    16.152017    24.651035   0.49031081    2592.4269 
  697000   0.48895222    8.7208595    15.240438    24.648886    0.5106069    2594.0808 
  698000    1.6360099    6.6361975    15.811017    24.747854   0.48061096     2592.478 
  699000   0.43761895    7.9056949     16.46338    24.984477   0.52530054    2586.2397 
  700000    1.3724804     5.973717    16.583969    24.487737    0.4819281    2603.5747 
  701000   0.80916188    10.056742     14.22649    25.421115   0.51874898    2575.1553 
  702000    1.5169658    5.7511217    16.328764    24.213119   0.46870645    2615.3704 
  703000    1.2010046    8.7698888    15.076281    25.535083   0.51408861    2574.2947 
  704000    0.6257771    6.5521151    17.005083    24.437197   0.50235278    2610.6461 
  705000    1.8002343    8.2760684    14.061243    24.868891   0.47051569    2597.6466 
  706000    1.3981808    8.1525879    14.770743    24.889522   0.48374224    2597.7943 
  707000    1.1123066    4.4069692    18.085378    24.056529   0.47917339     2625.047 
  708000    1.2700426    10.398037    14.286102    26.470136   0.53977616    2548.4446 
  709000   0.64439001    5.3922733     17.65091    23.949357    0.4867332     2629.498 
  710000    1.2563154    10.050083    14.177445    25.994222   0.52508996     2564.136 
  711000   0.84243045    5.7002997    17.545365    24.430333   0.49919806    2613.0869 
  712000    1.6453422    7.3358123    14.969729    24.619304   0.46913069    2606.4237 
  713000   0.99361627    8.3911446    15.524896    25.313313   0.51488749     2582.242 
  714000    1.0272692    7.6780904    15.003918    24.126606   0.47452777    2617.5083 
  715000    1.0394189    8.0290369    15.935692    25.426412   0.51965611     2572.092 
  716000   0.67226163    5.1969064    18.254946     24.39722   0.50711503     2601.765 
  717000   0.72673742    8.9473474    14.797256    24.766578   0.50257279    2585.9996 
  718000   0.84348677    7.4667306    16.268083    24.920967   0.51261284    2578.0975 
  719000   0.76727976    7.3993088    15.435298    23.913594   0.48198354    2607.4858 
  720000   0.82351871    6.8917098    17.079153    25.128936   0.52456461    2566.3613 
  721000   0.73873599    9.1166789    14.080599    24.236126   0.48467805    2592.8789 
  722000    1.0514825    6.3723086    16.359998    24.210954   0.48851395    2592.1859 
  723000   0.66426502    7.4982136    16.566036    24.998372   0.52397711    2565.3613 
  724000   0.89889472    6.2314726    15.771017     23.26656   0.45563265    2623.0595 
  725000    1.1980467    7.3526824    16.563414     25.60085   0.52968867    2550.9152 
  726000   0.45907027    9.0411978    14.019608    23.706374   0.47403058    2613.1528 
  727000   0.36658795    6.0409111    18.155467    24.711892   0.52806688    2582.0857 
  728000   0.65383189    10.014304    14.678813    25.612568   0.53653826    2556.9887 
  729000   0.90369265    5.6336699    16.031471    22.935959   0.44611554    2648.8629 
  730000    1.0852186    11.455638    14.191816    27.173543   0.57387032    2520.5046 
  731000    1.3553456    5.6331748    15.273013    22.812142   0.42151096    2666.2349 
  732000    1.6799458    6.8754585    16.398079    25.635961   0.50768377    2578.5054 
  733000    1.2283199    9.8673321    13.781888    25.376545   0.50058686    2589.9611 
  734000   0.90810105    6.5509903    15.775567    23.603574   0.46161143    2647.2976 
  735000    1.6960788    10.077806    14.972444    27.435361   0.56375161    2526.3753 
  736000   0.27104418    5.1067532     17.47747     22.96538   0.45998283    2669.1147 
  737000   0.78725153    10.484943    15.158052    26.750068   0.56768019    2545.7622 
  738000    1.0756228     6.835664    15.911641    24.259899   0.47618093    2622.6647 
  739000    1.8162812    7.4028483    14.614872    24.571865   0.45959722    2612.2344 
  740000   0.46256643    6.7137972    18.898397    26.262678   0.57258599    2556.6866 
  741000    1.7704336    6.1145659    14.505933    23.110171   0.41517577    2655.6729 
  742000   0.89184428    9.9961159    15.187931    26.438203   0.55552969    2545.1089 
  743000   0.93182048    6.5919846    16.015575    23.917932   0.47255256    2620.2606 
  744000    1.3032364    6.6450077    16.113076     24.59076   0.48636622    2595.9903 
  745000   0.96756683    6.2524568    17.640392     25.25349   0.52512579    2574.8662 
  746000   0.17593482    9.7404753    14.097475    24.085359   0.48918283     2610.553 
  747000     1.098969    5.6178579    18.483234    25.646517   0.53960083    2558.7091 
  748000   0.80827116    7.3871235    15.469532    23.993286   0.47797019    2607.0484 
  749000   0.95963626    6.1812816    16.878375    24.409145   0.49568586    2591.6979 
  750000    1.4273341    7.8028555    15.173764    24.983808   0.49613554     2572.831 
  751000   0.54649137    8.0355362    14.735075    23.539115   0.46951986    2619.7859 
  752000   0.51824129    6.6047126    18.282273    25.615763   0.55504484    2553.6773 
  753000    1.3328794     7.408303    14.515156     23.79782   0.45448529    2611.5117 
  754000   0.32118233    7.2550367    16.840504    24.547203   0.51962091    2586.2724 
  755000    1.0714838    9.9732767    13.925527    25.405577   0.51507266     2559.623 
  756000   0.17311426    5.4236211    17.805105    23.472168   0.49169868    2624.2701 
  757000    1.2315685    8.9991335     15.27069    26.001716   0.53578556    2546.2975 
  758000    1.0611069    7.3152535    14.552064    23.359499   0.44650524    2635.3301 
  759000   0.55948625    8.6444245    16.037992    25.469194   0.53846204    2572.1747 
  760000    1.4731245    7.1088163    15.642337    24.822735   0.48606261    2597.1487 
  761000    1.7168291    6.0280674    15.660752     24.10311    0.4550075    2624.1732 
  762000   0.69488588    10.797472    14.526549    26.301204   0.55052972    2558.1597 
  763000     1.519127     5.305787    16.150758    23.592818   0.44406514    2647.4582 
  764000   0.77066732    9.5246579    16.114365    26.722774   0.56746018    2549.3959 
  765000    1.6060829    4.9445163     17.09438    24.297451   0.46807992    2627.7532 
  766000    1.1549112     8.449697    15.153859     25.22765    0.5010271    2598.5797 
  767000    2.0064516    6.8516912    15.818711    25.491975   0.49058987    2589.5861 
  768000   0.72840818    6.7375299    16.455816     24.21767   0.48296621    2629.2254 
  769000   0.82455745    7.4943334     17.25126    25.905127   0.54051318    2571.8467 
  770000    1.1419035    6.0010484    16.461467    24.068317   0.47244568    2627.4225 
  771000    1.1758637    9.5928889    14.124837    25.371284   0.50464844    2580.9693 
  772000    1.2098331    6.1161629    17.189146    25.006636   0.50686067    2588.3436 
  773000   0.79093015    7.6650706    15.418321    24.195637   0.48472289    2611.4754 
  774000    1.1057232    8.0883725      15.8135    25.456795   0.51933398    2567.0556 
  775000   0.83811727    8.3215128    14.600245     24.10036   0.48016567    2607.1398 
  776000    0.7800854    5.8730123    17.657863     24.62787   0.51205672    2587.2281 
  777000      1.05953    7.6453325    16.125634    25.260931   0.51769558    2565.3478 
  778000   0.61869499    7.8524172    14.712625    23.435082   0.46612681    2623.5979 
  779000   0.87749922    8.5403556    15.692087    25.466426   0.53058822    2558.9213 
  780000    1.2586924    7.4993868    14.539136    23.808559   0.45787199    2612.2609 
  781000   0.80918893     5.796526    17.810105    24.744553   0.51676954    2581.5901 
  782000   0.75174577    9.6210429    14.628874     25.30706   0.52474362    2564.2707 
  783000   0.57384278    5.3751013    16.868936    23.051003   0.46174784    2638.0508 
  784000   0.74581433    10.156263    15.730886     26.93595   0.58313153    2516.5299 
  785000   0.83466666    4.7060433    16.820524    22.700318   0.44301447     2654.448 
  786000     1.456995    8.2186423    15.258411    25.525953   0.50976722    2565.5126 
  787000    1.2117799    9.0520198    13.710802    24.466887   0.47386275    2600.4522 
  788000    0.8184973    4.9939292    17.294462    23.439403   0.46904322    2632.6297 
  789000   0.74605993    10.804107    15.509361    27.362615   0.59558985    2511.0829 
  790000    1.3008763    4.3851396    15.930441    22.144938   0.40614752    2680.6079 
  791000   0.75195673    10.817227    15.215014     27.08968   0.58355355    2522.3415 
  792000   0.48353841    7.0697711    15.917202    23.666949   0.47771163    2629.4929 
  793000   0.94586721    7.3309367    15.650611    24.311673   0.48447048    2610.6356 
  794000    1.6463332    8.1850561     15.92789    26.428102   0.53753636    2545.8421 
  795000   0.29504185    7.6830542    14.501601    22.599558   0.44057939    2669.4994 
  796000    1.4460786    9.9480722    14.995261    26.976881   0.55844373    2528.2026 
  797000    0.2363821    6.2034343    17.188865    23.724712   0.49034419    2629.8281 
  798000    1.2915063    7.9774029    15.008726    24.802309   0.48726969    2594.6617 
  799000   0.34844783    8.9348132    16.270199    25.695017    0.5459931    2567.6091 
  800000    1.5796866    6.6286602    14.729765     23.57986   0.43744968    2636.7115 
  801000   0.33779738    6.4321492    19.201992    26.109169   0.57882998     2555.295 
  802000    1.4467939    8.3720393    13.911616    24.318209    0.4608249    2610.7625 
  803000   0.92151071    8.2718193    15.170473    24.738166   0.49838595    2595.8863 
  804000    1.0865966    8.1401173    15.244828    24.912972     0.501202    2589.4667 
  805000    1.3932528    7.0532034    15.138449    24.150914   0.46389293    2613.6745 
  806000   0.79429327    6.6894881    17.719162    25.525625   0.53940588    2569.1075 
  807000   0.21807793    9.2789034    14.678906    24.264482   0.50271699    2606.7782 
  808000    1.0733275    5.5736277    17.567441    24.650436   0.50144125    2590.3525 
  809000   0.42864489    8.5866664    16.126551       25.316    0.5351096    2564.2307 
  810000    1.0669128    5.2167654    16.938957    23.656069   0.47037579    2613.5486 
  811000   0.62397568    9.1527339    15.105215    25.135414    0.5257758    2562.8095 
  812000   0.91889032    7.0170432    15.344347    23.653579   0.46626696    2608.2836 
  813000   0.67470937    6.1875699    17.629782    24.766162   0.52207736    2570.7622 
  814000   0.77411189    7.6548268    15.654714    24.398135   0.49885996    2581.3439 
  815000   0.51034541    7.2431819    15.803403    23.764258    0.4859411    2601.0976 
  816000   0.78034875    9.2532937    14.948585    25.299244   0.52787977    2552.5372 
  817000   0.40574457    5.4675772    17.417573    23.455728   0.48728896    2612.6721 
  818000    1.1594636    9.1661218    14.597925    25.394542   0.51828497    2552.5889 
  819000   0.69712899    7.3561494    15.528413      23.8649   0.48353024    2604.3673 
  820000    1.1457215    8.1706541     14.62794    24.409765   0.48287647    2590.7384 
  821000    1.2044679    6.9042952    16.395363    24.993441   0.50602376    2576.5488 
  822000   0.75806948    6.8051282    16.069273    23.940436   0.48319664    2614.4094 
  823000    0.4535586    10.000903    14.940043    25.578763   0.54151155    2565.5601 
  824000    1.6183755     5.953533    15.776748    24.006122   0.45644833    2618.6377 
  825000   0.55079683    8.5616409    16.151211     25.48741   0.53606338    2572.9841 
  826000    1.1585546    4.6245742    18.450943    24.704734   0.50308327    2600.2912 
  827000    0.4147405    9.9248202    14.566062    25.074111   0.51586524    2589.4627 
  828000     1.529332    6.5417441    16.104768    24.797135   0.48344118    2599.4239 
  829000    1.1652716    6.4345949    16.332165    24.405423   0.48283115    2612.3127 
  830000   0.51699034     7.428809    17.224332    25.380159   0.53342625    2580.9465 
  831000   0.92538887    6.6166996    16.779515    24.697543   0.49776712    2602.7096 
  832000    1.1683364    8.4226832    14.755593    24.821249   0.49082225    2598.2151 
  833000    1.0598755    6.7093312    16.904422    25.104203    0.5140711    2588.8009 
  834000    1.0843184      8.08175    15.100475    24.707048   0.49115574    2600.5894 
  835000     1.047044    7.6447477    15.893764    25.010918   0.50308845    2589.2322 
  836000    1.1044043    8.1718039    15.063954    24.788826   0.49196574    2594.4628 
  837000   0.57485354    5.9132265    17.768661    24.490276    0.5100567    2601.5017 
  838000   0.87553943    8.2965831    15.940561    25.468372   0.52874392    2567.7016 
  839000   0.56904292    8.1137048    14.758865    23.672786   0.47447697    2621.5228 
  840000   0.80904583    9.4053852    14.933162    25.476268   0.52803136     2559.863 
  841000   0.92273236    7.2003502    15.472115    23.970058   0.47928977    2603.6823 
  842000   0.67606406    5.9553041    16.997926    23.903945   0.49072718    2601.2129 
  843000    0.7916341    10.920033    13.780917    25.814185   0.53978293     2538.524 
  844000   0.47611962    5.5803787    16.559469    22.809391   0.46102584      2632.98 
  845000   0.68684127    10.501046    14.519801    25.986718   0.55350285    2530.4945 
  846000   0.48288609    5.7923889    16.672781    23.144228   0.46860093    2620.7567 
  847000   0.80947202    8.6976042    14.737106     24.57303   0.50128987     2575.328 
  848000    1.1547855    8.0305438    15.218995    24.873456   0.50330881    2566.9906 
  849000   0.68173659    5.2778879    16.521018    22.757598   0.44895836    2637.2632 
  850000   0.51976128    10.350999    15.419687      26.5016   0.57736556    2519.6056 
  851000   0.66131248    5.2342736    16.670352    22.834596   0.45486966    2640.4366 
  852000   0.55255571    11.231852    13.777365    25.786249   0.54158719    2549.4084 
  853000    1.2214924     6.454168    16.240146    24.412038   0.48542475    2595.6519 
  854000    1.1565336    7.1841914    14.830857    23.641424   0.45542477    2625.0884 
  855000    1.6081134    8.5400092    15.559612    26.361031   0.53718032    2540.9111 
  856000   0.92614027     7.238487    14.387508     22.92838   0.43543118    2651.2943 
  857000     1.349317     8.218036    15.869597     25.98511   0.53332746    2552.6788 
  858000   0.57880791     5.802231     17.83967    24.455849    0.5070858    2601.3675 
  859000    1.0852149    9.0089627    13.540073    24.075119   0.46256177    2614.8875 
  860000   0.50732282    8.6922409    16.709592    26.115255    0.5625827    2552.7078 
  861000     1.052164    7.7880789    14.295036     23.56272   0.44995988    2635.3751 
  862000   0.83110108    6.3829063    18.262289    25.813931   0.55106196    2562.0097 
  863000    1.5396671    7.1821374    15.103216    24.450511   0.46988865    2604.9342 
  864000    1.8004707    6.6922116    14.937724    24.161847   0.45239236    2615.5433 
  865000   0.66835513    7.5538143    17.584213    26.077902   0.55638034    2555.8971 
  866000     1.093758    6.9035131    15.055343    23.496953   0.44892881    2640.7155 
  867000    1.3523668    6.1989146    17.469805    25.570485   0.52305454    2574.1202 
  868000   0.22378013    10.246845    14.538485    25.100021   0.51924366    2589.5022 
  869000    1.3295039    5.6780015    16.883312    24.430928   0.48093781      2611.32 
  870000   0.84377347    7.6006586    16.801005     25.58822   0.53530719    2574.0981 
  871000    1.3980954    6.9941365    15.050869    24.011077   0.45602028    2625.3431 
  872000   0.84068699    9.8020328    14.829396    25.813645   0.53474254    2567.4252 
  873000    1.6895383    5.9799942    15.822408    24.178315   0.45864318    2618.4258 
  874000   0.25552921    6.8197825    18.012025    25.191146   0.53901432    2584.8925 
  875000    1.8174668    7.1105712    15.332873    24.999257   0.48108807    2589.1746 
  876000    0.6391311    7.8214966    15.464814    24.185089   0.48639701    2613.0156 
  877000   0.78475467    9.1350072    15.251132    25.489701   0.52967949    2568.4537 
  878000   0.90451873    5.2021578    17.375455    23.849592   0.47836541    2617.8514 
  879000    1.3839692    9.1654378    14.319153    25.430797      0.50681     2563.658 
  880000   0.46505853    6.5257078    17.041095    24.220791    0.5045735    2599.2828 
  881000    1.0274077    8.6223099    14.639506    24.706608   0.49487468    2581.1617 
  882000    1.3984981    5.9797574    16.637364    24.583759   0.49070094    2583.0263 
  883000   0.88830598    6.5993286    15.770946    23.619455   0.46919343    2612.1691 
  884000   0.91149481    9.6460964    14.077794     25.00568   0.50835262    2565.6365 
  885000   0.49610424     5.961273    17.203906    23.862826   0.49700139    2602.6054 
  886000   0.34020985    10.139078    14.675922     25.29342   0.53515661    2557.0178 
  887000   0.85002863    5.1436589    17.867282    24.206293   0.49919791    2592.6851 
  888000    1.0615234    7.9398245     14.81775    24.250342   0.48208972    2593.2179 
  889000    1.1407464    7.6184698    15.547305    24.769949   0.49890247    2579.9515 
  890000    0.6140477    6.7760024    16.594135    24.233642   0.49582842    2601.3071 
  891000     1.329195    8.1358086    14.865087    24.870077   0.49029559      2586.16 
[...]
 8181000   0.89876574    8.2651817    15.287649     24.81672   0.50335562    2584.9323 
 8182000   0.91113296    6.5414297    16.320959    24.143669   0.48774471    2603.0427 
 8183000   0.51076455    9.7621589    14.861643    25.342065   0.53309938    2561.3099 
 8184000   0.86665909    5.8386189    16.466604    23.523962   0.46921649    2617.0776 
 8185000   0.56981691    8.0333313    16.438713     25.27335   0.53807133    2558.6013 
 8186000    0.6559689    7.4888249    15.524935    23.936216   0.48458533    2598.5185 
 8187000    1.1400498     6.698244    15.826199    24.127638   0.48058628     2589.472 
 8188000   0.84785929    8.2275725    15.797034    25.216909   0.52732295    2551.8165 
 8189000   0.72733789    5.9978951    15.725985    22.746699   0.44885673    2627.9707 
 8190000   0.29324815    10.065084    15.452528    25.929993   0.56933729    2522.5414 
 8191000   0.55308994    6.1971984    15.795566    22.770547   0.45663702    2619.2819 
 8192000    0.3339496    8.1177372    15.806773    24.394127   0.51902029    2563.7745 
 8193000   0.51848265    7.6711077    16.347631    24.747855    0.5269345    2551.7422 
 8194000   0.65578343    6.7454648    14.620546    22.288206   0.43312976    2632.6187 
 8195000   0.63655984    8.6173575    16.761939    26.274459   0.57909289    2506.7773 
 8196000   0.44926131    6.2128029    15.289627    22.134204   0.43569661    2638.7478 
 8197000   0.48295297    8.9828937    15.284853    24.946899   0.53018249    2547.0665 
 8198000   0.41258074    6.5392705    17.349084    24.468546   0.52416881    2565.8428 
 8199000   0.73660868    7.6139657    14.186129     22.83595    0.4430224    2624.7761 
 8200000   0.68298867    7.6540676    17.716428    26.330949   0.57939671    2517.2834 
 8201000   0.72185121    6.3810759    14.848682    22.244861   0.42659644    2648.3581 
 8202000   0.85013459    8.2125479     15.97397    25.382019   0.53501218    2545.8478 
 8203000   0.79761811    6.5039472    16.606431    24.232028   0.49944486    2585.0934 
 8204000   0.36114353    8.2313944    14.789342    23.528594   0.47549164    2612.7934 
 8205000   0.64633192    7.1323031    18.049964    26.091171   0.56787064    2535.4941 
 8206000   0.96054201    6.9694235    14.700537    23.020723   0.44109698     2636.419 
 8207000   0.79595815    6.9510533    17.375753    25.446122   0.53717587    2559.9222 
 8208000    1.0581864    7.3808811    15.651433    24.520389   0.49097765    2591.2344 
 8209000   0.89428001    7.6471868    15.027182     23.93195   0.47302646    2614.4032 
 8210000    1.1511942    7.4125388    16.755649    25.787055    0.5340479    2559.8618 
 8211000   0.64179696     7.300581    15.678557    23.881665   0.47819164    2624.4008 
 8212000   0.96101189    7.0411741    17.262904    25.655501   0.53323525    2569.9128 
 8213000    1.0804095    7.8052667    15.303058     24.62765   0.48724308    2604.7776 
 8214000    1.5434712    6.4766975    15.925345    24.572548   0.47445605    2608.3054 
 8215000    1.1311581    8.6301475    15.619251    25.840089   0.52825717    2570.1407 
 8216000    1.5477154    6.5083024    15.352718    24.037495   0.45447745    2629.8695 
 8217000    1.0563356    8.1694078    16.089749    25.744628   0.52537646     2576.067 
 8218000     1.011959    7.1952823    15.997699    24.616049   0.48894993    2612.4441 
 8219000   0.60076472     6.481911    17.747665    25.074402   0.52407053    2597.0567 
 8220000    1.3009322    8.0794142    15.616141    25.524991   0.50893045    2581.4661 
 8221000    1.1031514    7.1508083    15.494233    24.196348    0.4734527    2622.7527 
 8222000   0.88797404    8.4136903    15.868155    25.530559   0.52680433    2578.0189 
 8223000    1.3734201    7.3227204    15.229576    24.483668   0.47327561    2607.9881 
 8224000    1.1207841    6.5018411    16.992053    25.069997   0.51113979    2584.9187 
 8225000    1.1121183    6.9910427    16.103413    24.658372     0.494036    2593.6135 
 8226000   0.61170365    8.1549946    15.400128    24.415331   0.49627353    2596.6742 
 8227000   0.87046192    7.4953673    16.370679    25.090134   0.51921982    2571.0132 
 8228000   0.58263394    7.1149375    15.967697    23.901964   0.48787183    2606.1258 
 8229000    1.0291736    8.2202453    15.328297    24.995818   0.51001937    2568.6929 
 8230000    0.7775991    7.6884423    15.383333    24.165274   0.48944725    2593.8371 
 8231000    1.1824296    7.5402954    15.190432    24.393519   0.48453983    2586.1306 
 8232000   0.72991316    6.9684181    16.824852     24.81971   0.51903532    2572.7275 
 8233000   0.66111793     7.713062    15.198423    23.841182   0.47981464    2604.8715 
 8234000   0.47999966    8.7831173    15.681103     25.13922   0.52989569    2564.4252 
 8235000    1.0040226    6.9256904    15.641777    23.979374   0.47703764    2602.7457 
 8236000   0.61921476    7.8888165    15.977811    24.737399    0.5115713    2580.0517 
 8237000   0.95644855    6.3214112    17.273631    24.940048   0.51567515    2576.0866 
 8238000   0.73834884    7.7453568    14.954766    23.738426   0.46964006    2617.0927 
 8239000    1.0023611    8.5649589    15.693229    25.667759   0.53108248    2557.0316 
 8240000   0.94466294    6.0630706    16.290843    23.682346   0.46982848    2621.9938 
 8241000    0.7283212    8.2239809    15.966782    25.214965   0.52214272    2574.1627 
 8242000   0.95761307    7.7578625    16.014474     25.11898   0.51289019    2578.8836 
 8243000   0.63933041    7.7632928    14.745043    23.407394   0.46127916    2636.2263 
 8244000    1.1174854    8.0699809    16.956174    26.597619   0.56346378    2536.6699 
 8245000   0.86652976    6.9546504     15.13432    23.307527   0.44998895    2642.5233 
 8246000    1.3389396    7.5546322    16.101615    25.539131   0.51521794    2569.2139 
 8247000   0.76007355    8.1536841    15.762208    24.984746   0.50994173     2586.427 
 8248000    1.0437475    6.7300907    15.235294    23.433155   0.45108783    2639.6752 
 8249000   0.97231471    7.5286917    18.110342    27.006351    0.5846984    2528.9903 
 8250000   0.68485421    7.3717089    14.618544    22.953329   0.43838017    2659.6291 
 8251000   0.60958061     8.732089    16.619919    26.209231   0.56211813    2552.9401 
 8252000    1.2733557    7.9153752    14.884774    24.590806   0.48028923     2603.043 
 8253000     1.444447    5.8329104    15.874436      23.7386   0.45165019    2630.8624 
 8254000    1.1382166    8.0633273    16.990125     26.65407   0.56346772    2540.8173 
 8255000   0.90375073    7.3540045    14.425251    23.050155   0.43627466    2658.2362 
 8256000    1.1361292    6.5917785    18.072511    26.261971   0.55228183     2553.873 
 8257000   0.70733741    7.8396388    15.817172    24.651504   0.49771273    2603.2854 
 8258000   0.98302679    6.0873167    16.820576    24.290274   0.48701169    2615.0919 
 8259000    1.2892218    8.0383904    15.982854    25.834213    0.5273727    2566.2489 
 8260000   0.58606055    7.8801744    14.916604    23.620926   0.46200187    2638.1725 
 8261000    1.5401974     6.659275    17.414156    26.239334   0.53820012    2554.4204 
 8262000    1.0649915    7.3059381     15.18293    23.986512   0.46534061    2624.3776 
 8263000     1.355167     7.450249    15.689306    25.045259   0.49755463    2587.9748 
 8264000   0.80832809    8.6422033    15.592506     25.37142   0.52677752    2575.9403 
 8265000    1.0798533    6.2936734    15.915376    23.727593   0.46193729    2628.3613 
 8266000     1.085629    8.5939608    15.932249    26.052875   0.54245201     2552.436 
 8267000   0.60951789    6.7076657    16.090155    23.654955   0.47291554    2626.8629 
 8268000   0.84561433    7.8226153    16.261908    25.273669   0.52357096    2572.5384 
 8269000     1.203917    7.2473133    15.764525    24.704846   0.49289292    2588.9517 
 8270000    1.0396213    6.5030445    15.857242    23.822253   0.46987256    2615.4637 
 8271000   0.64531736    8.7181006    16.283869    25.909447   0.55291713    2547.5978 
 8272000   0.55592744    6.4996484    16.142196    23.423618   0.47165064     2625.802 
 8273000     1.244095     8.514116    15.009295     25.27292    0.5108578    2565.4179 
 8274000   0.94054524    6.9582299    16.065838    24.346709   0.49156763    2594.2352 
 8275000   0.50447716    7.3929303    16.058881    24.161232   0.49868458    2599.8671 
 8276000    1.1404623    8.7514179    15.071115    25.426308   0.51888858    2560.1198 
 8277000    0.8734543    6.2307146    16.056885    23.515895   0.46325345    2622.1844 
 8278000    1.2062458    7.7312767    16.114784    25.542343   0.52330084    2558.6854 
 8279000   0.97937823    6.8123581    15.987175    24.176784   0.48220928    2604.5217 
 8280000    1.2349814    7.4436918    15.441451    24.621835   0.48686074     2593.839 
 8281000   0.82179254    7.5964003    16.548377    25.300423   0.52513364    2576.7272 
 8282000    1.2277268    7.0108492    15.352052    24.089392   0.46535223    2621.1883 
 8283000    1.5670909    7.9239518    15.514257     25.64193   0.50851203    2576.1067 
 8284000    0.9988479    7.0988298     16.07765     24.58111   0.49128248    2614.0511 
 8285000    1.2891668    7.3125263    16.186538    25.311956   0.50634745    2593.4306 
 8286000    1.9120807    7.6544411    15.031938    25.375242   0.48448323      2593.44 
 8287000    1.6627173    7.6366077    14.538297    24.513101   0.46057079    2622.7602 
 8288000   0.95382777    7.0948082    17.257291    25.693419   0.53132764    2585.1013 
 8289000   0.93282377    7.9961065    15.542456    24.850346   0.49364145    2610.6665 
 8290000    1.2693039    7.1912985    16.183292    25.159549   0.50343522     2598.594 
 8291000    1.4333234    6.7970446    16.325233    25.137889   0.49786893    2597.0557 
 8292000   0.82511062    8.5341941    15.068942    24.763448   0.49402832    2606.2312 
 8293000    1.7260797     6.460486    16.493695     25.38148   0.49916244    2583.4374 
 8294000   0.72152782    7.8867073    15.419908    24.321264   0.48856423    2614.1545 
 8295000    1.7545304    7.1282103    15.821919    25.417438   0.49839307    2575.4176 
 8296000   0.81767718    8.6282639    14.717603    24.495726   0.49235322    2601.3766 
 8297000     1.114013    6.9730783    15.768423    24.308082   0.48276754    2605.3791 
 8298000   0.95693409    7.5489324    16.879603    25.774224   0.53995897    2557.4189 
 8299000    1.0515676    6.6149954    15.119223    23.212985   0.44486665    2639.7129 
 8300000   0.97303694    8.4907555    16.267546    26.126634   0.54861301    2546.5574 
 8301000     0.952649    7.7257215    14.855091    23.920475   0.46734685     2616.302 
 8302000    0.9935314     6.414773    16.854497    24.666423   0.50193904    2591.5931 
 8303000    1.4112034    8.3856351    15.217038    25.587178   0.51432749    2561.8292 
 8304000    1.1311447    6.0172639    15.022527    22.630463   0.42226139    2659.7256 
 8305000    1.0964824    9.2219645    16.466318    27.230211   0.58421164    2515.2289 
 8306000   0.47002849    7.1675934    15.012499     22.84107   0.44963405    2655.2264 
 8307000    1.0053485    7.7158549      16.3348    25.464427   0.52522988    2569.4111 
 8308000    1.0229336    8.8114853    15.217677    25.467663   0.51886054    2569.9445 
 8309000   0.68276162    6.3729356     15.37807    22.711139   0.43905869    2661.7877 
 8310000    1.3316606    10.290409     15.36325    27.526307   0.58360159     2511.216 
 8311000   0.47619095    5.6081166    16.324309     22.60207   0.44090444    2669.8748 
 8312000     1.201237    8.7010685    15.811236    26.201544   0.53994976      2553.26 
 8313000   0.78876716    8.6800712    14.887128    24.676403   0.49425844    2602.4033 
 8314000    1.0564411    6.4550119    15.928256    23.868888   0.46502545    2631.8755 
 8315000   0.69190072     8.156126    17.708178    26.837289   0.58282943    2541.1624 
 8316000     1.315252    6.7767819    14.638285     23.26464   0.43038103    2658.3021 
 8317000   0.89159409    10.017967    15.271995    26.543766   0.55488903    2554.5007 
 8318000    1.3894878    5.9406868    16.618354    24.513008   0.47892781    2621.3588 
 8319000     1.327311    7.9950045     15.15357    25.015105   0.48679828    2610.1911 
 8320000    1.3543232    7.6755752    16.267342    25.847434   0.51818149    2587.4872 
 8321000    1.1911571    6.5499768     15.94956    24.174602   0.46734068     2643.778 
 8322000   0.96942418    9.1317356    16.259193    26.754181   0.55838258    2563.6795 
 8323000   0.76108388    7.6982273    15.907413    24.675914   0.48910103    2629.9305 
 8324000    1.2492116    7.4540389    16.553227     25.76397   0.51937842    2594.3208 
 8325000    1.5259904    6.4875644    16.560098    25.193586   0.49259539    2608.8266 
 8326000    1.3918076     8.232463     14.25784    24.447532   0.46356281    2627.8219 
 8327000    1.3267385    7.5424677     16.81488    26.223073   0.53687086    2565.1098 
 8328000     0.874589    6.9331869    15.820695    23.983773   0.47239002    2629.3174 
 8329000    1.3061754    8.2466297    15.441434    25.524873   0.51217085    2573.1805 
 8330000   0.62700619     8.431222    15.346503    24.659452   0.50573918    2595.8589 
 8331000   0.91049246     6.829182    16.028503    24.138065   0.48188357    2609.9581 
 8332000   0.47637103    8.2382956    16.842566    25.750758   0.55142555    2556.6711 
 8333000    1.3050912    6.5810793    15.198327     23.61469   0.45122061    2623.7636 
 8334000   0.79127896    7.6101152    16.460668     25.18352   0.52357816     2572.351 
 8335000    1.3320052    7.9672411    14.713586     24.55396   0.47940483    2591.6177 
 8336000   0.76986082    6.8307779     16.19261    24.106005   0.48887978    2605.0911 
 8337000     1.008975    7.9252476    16.137911    25.482029   0.52760471    2561.6847 
 8338000    1.1530443    7.0191202     15.12296    23.763549   0.46008681    2617.6833 
 8339000   0.66762207    7.8886657    16.532705    25.360214   0.53500463    2567.2838 
 8340000   0.80853906    7.8350627    15.365301    24.337372   0.49009989     2600.465 
 8341000    1.2685559    6.7880055    15.890158     24.46207   0.48249144    2598.1962 
 8342000    1.4573779    6.9660955    16.287944    25.303477   0.50691827     2574.211 
 8343000   0.66851241    7.1903632     15.87971    24.010169   0.48092763    2618.8223 
 8344000    1.2559929     7.447893     16.68799    25.902123   0.53175028    2562.2104 
 8345000    1.2529327    6.9814486    15.355728    24.099113   0.46562242    2623.2191 
 8346000    1.4595378    7.9642842    15.160556    25.177315   0.49379717    2593.2018 
 8347000   0.69639623    7.3057682     17.34749    25.632566   0.53635539    2583.3442 
 8348000      1.55461    6.9334287    15.085621     24.20522    0.4555994    2634.3434 
 8349000    1.3245289    8.7748292    15.805889    26.443337   0.54013142    2566.2048 
 8350000    1.2169923    7.1115285    15.229504    24.052428   0.45901038    2644.0345 
 8351000    1.0677365    8.3627937    16.155258    26.019557   0.53309059    2581.0757 
 8352000     1.447369    6.4539525    16.929733    25.419048   0.50294446    2598.5683 
 8353000     1.317973    6.9266558    15.114621    23.894677   0.44986197    2646.7833 
 8354000    1.0830629     8.808395    16.935215    27.266667   0.57923918    2538.1106 
 8355000    1.6400517    6.0572549    14.562512     22.92609   0.41064638    2670.9056 
 8356000   0.84978434    7.9109088    17.224023    26.329941   0.56033494    2551.2915 
 8357000   0.82736315    7.2123802    16.221216    24.597076   0.50070619    2597.0718 
 8358000   0.76923665    6.9038937    15.239231    23.224864   0.45332798    2636.7847 
 8359000   0.94738383    8.9236674    16.961718    27.217644   0.59157328    2509.5896 
 8360000   0.94958255    5.8075683    14.756763    21.899682   0.40476725    2680.7386 
 8361000   0.93602638    8.3584273    17.044993    26.719708   0.57632549    2522.6467 
 8362000    1.1498623    7.1990447    14.946682    23.762721    0.4616025    2613.1819 
 8363000   0.95100254    6.0472732    16.148637    23.533258   0.46409277    2620.5135 
 8364000   0.58036508    8.8693624    17.113832    26.799333   0.58840593    2519.5349 
 8365000    0.9939521     5.683618    15.148423    22.229786   0.41385637    2669.4088 
 8366000   0.85363082     8.584712    16.660483    26.445613   0.56764537    2534.5187 
 8367000   0.62612047    7.7466021    15.307321    23.934405   0.47867507    2614.5591 
 8368000   0.84494916    6.3786402    16.789005    24.355855   0.49590417    2602.3568 
 8369000   0.91990659    7.9268057    16.582329    25.802754    0.5420242    2559.4763 
 8370000   0.92186547    7.1504687    14.921575    23.368417   0.44780811     2641.891 
 8371000   0.98984735    9.3500353    15.628165    26.370173   0.55395611    2548.6482 
 8372000    1.0231033    6.6120636    15.820703    23.871506   0.46593588    2629.9654 
 8373000   0.59418294    7.9765116    16.503982    25.316063   0.52984109    2585.6558 
 8374000    1.3137964    6.7724218    16.818855    25.438803   0.51246545    2584.6943 
 8375000   0.90081862     7.550959    15.301918    24.119653   0.47180838    2629.4798 
 8376000    1.2946494    7.7527984    16.661407    26.234806   0.53908205    2563.2762 
 8377000    1.1362575     6.060076    16.365469    24.023407   0.46873977    2634.1951 
 8378000    1.2846618    8.7102519    15.192503     25.70931   0.51522611    2579.4038 
 8379000    1.3605135    6.6603161    16.445026    25.018564   0.49525775    2600.6676 
 8380000    0.8228739    7.9609142    15.498889    24.616969   0.49353441    2612.5656 
 8381000    1.1588545    6.9280223    17.283049     25.84071     0.533391    2570.7925 
 8382000    1.1695787    6.6512971    15.561165    23.857182   0.46254327    2629.2916 
 8383000    1.4522127    8.3400369      15.1365    25.518711   0.50884895    2569.4107 
 8384000   0.88103907    7.0469466    16.088418    24.374326   0.49441612    2600.1786 
 8385000   0.93986703    8.1848486    14.993067    24.499603   0.48968895    2590.7228 
 8386000   0.60885838    6.6225542    17.614443    25.093204   0.53215047    2568.2342 
 8387000   0.97560886    6.5950997    15.630623    23.597672   0.46543668    2614.0011 
 8388000   0.47285219    8.4762796    16.124028    25.265256   0.53640194    2558.9699 
 8389000    1.0586648    6.3205662    16.183486      23.9928   0.47862991    2598.7361 
 8390000   0.69167107    7.4702629    15.908981    24.351906   0.50018068    2587.8117 
 8391000     1.097732    7.5896379    15.816809    24.950132   0.50808715    2569.9952 
 8392000   0.82590396    8.4608003    14.285253     23.90748   0.47288461    2604.9008 
 8393000    1.1419748    6.7809529    16.671497    25.058352   0.51283187    2569.8934 
 8394000   0.80695148    7.5162641    15.646964    24.298004   0.49076246    2595.9411 
 8395000   0.58882447    7.6576932    16.080676    24.566404   0.50755722    2589.7773 
 8396000   0.87667983    7.8327394    15.800661    24.866231   0.50555888    2583.1106 
 8397000   0.97919787    7.7480636     15.08341     24.20847    0.4761758    2607.6768 
 8398000    1.0074566    6.3731753    17.634551    25.424462   0.52690609    2572.1609 
 8399000   0.96317654    8.5872038    14.463225    24.404896   0.48049596    2607.2767 
 8400000    1.2460632    7.1571321    15.969459    24.878867   0.49634462    2593.9856 
 8401000   0.77122274    9.4179396    14.706382    25.208854   0.51548375    2584.6705 
 8402000   0.78463543    6.9989797    15.966778    24.069152   0.48019959    2623.0513 
 8403000   0.82965246    8.0021886    17.077061    26.245948   0.55347709    2555.0842 
 8404000    1.3435029    7.5251559    14.117864    23.532321   0.43618439     2643.121 
 8405000   0.66896505    7.9700275    16.768827    25.679586   0.54220407    2572.8156 
 8406000   0.90102441    9.6092035    14.324962    25.201231   0.50818418     2586.706 
 8407000   0.97194659    5.5814213    16.650805    23.599026   0.46329665    2638.9103 
 84