LAMMPS (31 Mar 2017)
# GayBerne ellipsoids in LJ background fluid

units	     lj
boundary     p p p
atom_style   hybrid ellipsoid bond
#atom_style ellipsoid
read_data    atoms.data
  orthogonal box = (-0.5 -0.5 -0.5) to (0.5 0.5 0.5)
  1 by 1 by 1 MPI processor grid
  reading atoms ...
  0 atoms
ERROR: Unknown identifier in data file: 1 1 1 24.0 7.0 9.0 (../read_data.cpp:658)
Last command: read_data    atoms.data
