LAMMPS (31 Mar 2017)
# Input file for uniaxial compressive loading of single crystal aluminum
# Mark Tschopp, November 2010

# ------------------------ INITIALIZATION ----------------------------
units 		metal
dimension	3
boundary	p	p	p
atom_style	atomic
variable latparam equal 8.866

# ----------------------- ATOM DEFINITION ----------------------------
lattice fcc
ERROR: Illegal lattice command (../lattice.cpp:85)
Last command: lattice fcc
