ITEM: TIMESTEP
0
ITEM: NUMBER OF ATOMS
2049
ITEM: BOX BOUNDS pp pp pp
-1.4460000000000001e+01 1.4460000000000001e+01
-1.4460000000000001e+01 1.4460000000000001e+01
-1.4460000000000001e+01 1.4460000000000001e+01
ITEM: ATOMS id type xs ys zs c_csym c_eng 
1 1 0 0 0 0 -3.54022 
2 1 0.0625 0.0625 0 0 -3.54022 
3 1 0.0625 0 0.0625 0 -3.54022 
4 1 0 0.0625 0.0625 0 -3.54022 
5 1 0.125 0 0 0 -3.54022 
8 1 0.125 0.0625 0.0625 0 -3.54022 
33 1 0 0.125 0 0 -3.54022 
35 1 0.0625 0.125 0.0625 0 -3.54022 
37 1 0.125 0.125 0 0 -3.54022 
257 1 0 0 0.125 0 -3.54022 
258 1 0.0625 0.0625 0.125 0 -3.54022 
261 1 0.125 0 0.125 0 -3.54022 
289 1 0 0.125 0.125 0 -3.54022 
293 1 0.125 0.125 0.125 0 -3.54022 
6 1 0.1875 0.0625 0 0 -3.54022 
7 1 0.1875 0 0.0625 0 -3.54022 
9 1 0.25 0 0 0 -3.54022 
12 1 0.25 0.0625 0.0625 0 -3.54022 
39 1 0.1875 0.125 0.0625 0 -3.54022 
41 1 0.25 0.125 0 0 -3.54022 
262 1 0.1875 0.0625 0.125 0 -3.54022 
265 1 0.25 0 0.125 0 -3.54022 
297 1 0.25 0.125 0.125 0 -3.54022 
10 1 0.3125 0.0625 0 0 -3.54022 
11 1 0.3125 0 0.0625 0 -3.54022 
13 1 0.375 0 0 0 -3.54022 
16 1 0.375 0.0625 0.0625 0 -3.54022 
43 1 0.3125 0.125 0.0625 0 -3.54022 
45 1 0.375 0.125 0 0 -3.54022 
266 1 0.3125 0.0625 0.125 0 -3.54022 
269 1 0.375 0 0.125 0 -3.54022 
301 1 0.375 0.125 0.125 0 -3.54022 
14 1 0.4375 0.0625 0 0 -3.54022 
15 1 0.4375 0 0.0625 0 -3.54022 
17 1 0.5 0 0 2.94435e-35 -3.54022 
18 1 0.5625 0.0625 0 0 -3.54022 
19 1 0.5625 0 0.0625 0 -3.54022 
20 1 0.5 0.0625 0.0625 8.58836e-35 -3.54022 
47 1 0.4375 0.125 0.0625 0 -3.54022 
49 1 0.5 0.125 0 4.87821e-34 -3.54022 
51 1 0.5625 0.125 0.0625 0 -3.54022 
270 1 0.4375 0.0625 0.125 0 -3.54022 
273 1 0.5 0 0.125 2.7292e-34 -3.54022 
274 1 0.5625 0.0625 0.125 0 -3.54022 
305 1 0.5 0.125 0.125 8.63891e-34 -3.54022 
21 1 0.625 0 0 0 -3.54022 
22 1 0.6875 0.0625 0 0 -3.54022 
23 1 0.6875 0 0.0625 0 -3.54022 
24 1 0.625 0.0625 0.0625 0 -3.54022 
53 1 0.625 0.125 0 0 -3.54022 
55 1 0.6875 0.125 0.0625 0 -3.54022 
277 1 0.625 0 0.125 0 -3.54022 
278 1 0.6875 0.0625 0.125 0 -3.54022 
309 1 0.625 0.125 0.125 0 -3.54022 
25 1 0.75 0 0 0 -3.54022 
26 1 0.8125 0.0625 0 0 -3.54022 
27 1 0.8125 0 0.0625 0 -3.54022 
28 1 0.75 0.0625 0.0625 0 -3.54022 
57 1 0.75 0.125 0 0 -3.54022 
59 1 0.8125 0.125 0.0625 0 -3.54022 
281 1 0.75 0 0.125 0 -3.54022 
282 1 0.8125 0.0625 0.125 0 -3.54022 
313 1 0.75 0.125 0.125 0 -3.54022 
29 1 0.875 0 0 0 -3.54022 
30 1 0.9375 0.0625 0 0 -3.54022 
31 1 0.9375 0 0.0625 0 -3.54022 
32 1 0.875 0.0625 0.0625 0 -3.54022 
61 1 0.875 0.125 0 0 -3.54022 
63 1 0.9375 0.125 0.0625 0 -3.54022 
285 1 0.875 0 0.125 0 -3.54022 
286 1 0.9375 0.0625 0.125 0 -3.54022 
317 1 0.875 0.125 0.125 0 -3.54022 
34 1 0.0625 0.1875 0 0 -3.54022 
36 1 0 0.1875 0.0625 0 -3.54022 
40 1 0.125 0.1875 0.0625 0 -3.54022 
65 1 0 0.25 0 0 -3.54022 
67 1 0.0625 0.25 0.0625 0 -3.54022 
69 1 0.125 0.25 0 0 -3.54022 
290 1 0.0625 0.1875 0.125 0 -3.54022 
321 1 0 0.25 0.125 0 -3.54022 
325 1 0.125 0.25 0.125 0 -3.54022 
38 1 0.1875 0.1875 0 0 -3.54022 
44 1 0.25 0.1875 0.0625 0 -3.54022 
71 1 0.1875 0.25 0.0625 0 -3.54022 
73 1 0.25 0.25 0 0 -3.54022 
294 1 0.1875 0.1875 0.125 0 -3.54022 
329 1 0.25 0.25 0.125 0 -3.54022 
42 1 0.3125 0.1875 0 0 -3.54022 
48 1 0.375 0.1875 0.0625 0 -3.54022 
75 1 0.3125 0.25 0.0625 0 -3.54022 
77 1 0.375 0.25 0 1.89327e-29 -3.54022 
298 1 0.3125 0.1875 0.125 0 -3.54022 
333 1 0.375 0.25 0.125 0 -3.54022 
46 1 0.4375 0.1875 0 0 -3.54022 
50 1 0.5625 0.1875 0 0 -3.54022 
52 1 0.5 0.1875 0.0625 2.2408e-34 -3.54022 
79 1 0.4375 0.25 0.0625 0 -3.54022 
81 1 0.5 0.25 0 1.89331e-29 -3.54022 
83 1 0.5625 0.25 0.0625 0 -3.54022 
302 1 0.4375 0.1875 0.125 0 -3.54022 
306 1 0.5625 0.1875 0.125 0 -3.54022 
337 1 0.5 0.25 0.125 4.65309e-34 -3.54022 
54 1 0.6875 0.1875 0 0 -3.54022 
56 1 0.625 0.1875 0.0625 0 -3.54022 
85 1 0.625 0.25 0 1.89327e-29 -3.54022 
87 1 0.6875 0.25 0.0625 0 -3.54022 
310 1 0.6875 0.1875 0.125 0 -3.54022 
341 1 0.625 0.25 0.125 0 -3.54022 
58 1 0.8125 0.1875 0 0 -3.54022 
60 1 0.75 0.1875 0.0625 0 -3.54022 
89 1 0.75 0.25 0 0 -3.54022 
91 1 0.8125 0.25 0.0625 0 -3.54022 
314 1 0.8125 0.1875 0.125 0 -3.54022 
345 1 0.75 0.25 0.125 0 -3.54022 
62 1 0.9375 0.1875 0 0 -3.54022 
64 1 0.875 0.1875 0.0625 0 -3.54022 
93 1 0.875 0.25 0 0 -3.54022 
95 1 0.9375 0.25 0.0625 0 -3.54022 
318 1 0.9375 0.1875 0.125 0 -3.54022 
349 1 0.875 0.25 0.125 0 -3.54022 
66 1 0.0625 0.3125 0 0 -3.54022 
68 1 0 0.3125 0.0625 0 -3.54022 
72 1 0.125 0.3125 0.0625 0 -3.54022 
97 1 0 0.375 0 0 -3.54022 
99 1 0.0625 0.375 0.0625 0 -3.54022 
101 1 0.125 0.375 0 0 -3.54022 
322 1 0.0625 0.3125 0.125 0 -3.54022 
353 1 0 0.375 0.125 0 -3.54022 
357 1 0.125 0.375 0.125 0 -3.54022 
70 1 0.1875 0.3125 0 0 -3.54022 
76 1 0.25 0.3125 0.0625 0 -3.54022 
103 1 0.1875 0.375 0.0625 0 -3.54022 
105 1 0.25 0.375 0 1.89327e-29 -3.54022 
326 1 0.1875 0.3125 0.125 0 -3.54022 
361 1 0.25 0.375 0.125 0 -3.54022 
74 1 0.3125 0.3125 0 6.31089e-30 -3.54022 
80 1 0.375 0.3125 0.0625 3.15544e-30 -3.54022 
107 1 0.3125 0.375 0.0625 3.15544e-30 -3.54022 
109 1 0.375 0.375 0 0 -3.54022 
330 1 0.3125 0.3125 0.125 0 -3.54022 
365 1 0.375 0.375 0.125 0 -3.54022 
78 1 0.4375 0.3125 0 6.31089e-30 -3.54022 
82 1 0.5625 0.3125 0 6.31089e-30 -3.54022 
84 1 0.5 0.3125 0.0625 3.15605e-30 -3.54022 
111 1 0.4375 0.375 0.0625 0 -3.54022 
113 1 0.5 0.375 0 1.74346e-34 -3.54022 
115 1 0.5625 0.375 0.0625 0 -3.54022 
334 1 0.4375 0.3125 0.125 0 -3.54022 
338 1 0.5625 0.3125 0.125 0 -3.54022 
369 1 0.5 0.375 0.125 8.60874e-35 -3.54022 
86 1 0.6875 0.3125 0 6.31089e-30 -3.54022 
88 1 0.625 0.3125 0.0625 3.15544e-30 -3.54022 
117 1 0.625 0.375 0 0 -3.54022 
119 1 0.6875 0.375 0.0625 3.15544e-30 -3.54022 
342 1 0.6875 0.3125 0.125 0 -3.54022 
373 1 0.625 0.375 0.125 0 -3.54022 
90 1 0.8125 0.3125 0 0 -3.54022 
92 1 0.75 0.3125 0.0625 0 -3.54022 
121 1 0.75 0.375 0 1.89327e-29 -3.54022 
123 1 0.8125 0.375 0.0625 0 -3.54022 
346 1 0.8125 0.3125 0.125 0 -3.54022 
377 1 0.75 0.375 0.125 0 -3.54022 
94 1 0.9375 0.3125 0 0 -3.54022 
96 1 0.875 0.3125 0.0625 0 -3.54022 
125 1 0.875 0.375 0 0 -3.54022 
127 1 0.9375 0.375 0.0625 0 -3.54022 
350 1 0.9375 0.3125 0.125 0 -3.54022 
381 1 0.875 0.375 0.125 0 -3.54022 
98 1 0.0625 0.4375 0 0 -3.54022 
100 1 0 0.4375 0.0625 0 -3.54022 
104 1 0.125 0.4375 0.0625 0 -3.54022 
129 1 0 0.5 0 1.73859e-33 -3.54022 
130 1 0.0625 0.5625 0 0 -3.54022 
131 1 0.0625 0.5 0.0625 1.05907e-33 -3.54022 
132 1 0 0.5625 0.0625 0 -3.54022 
133 1 0.125 0.5 0 3.56059e-33 -3.54022 
136 1 0.125 0.5625 0.0625 0 -3.54022 
354 1 0.0625 0.4375 0.125 0 -3.54022 
385 1 0 0.5 0.125 3.72001e-33 -3.54022 
386 1 0.0625 0.5625 0.125 0 -3.54022 
389 1 0.125 0.5 0.125 2.10819e-33 -3.54022 
102 1 0.1875 0.4375 0 0 -3.54022 
108 1 0.25 0.4375 0.0625 0 -3.54022 
134 1 0.1875 0.5625 0 0 -3.54022 
135 1 0.1875 0.5 0.0625 2.01458e-33 -3.54022 
137 1 0.25 0.5 0 1.89375e-29 -3.54022 
140 1 0.25 0.5625 0.0625 0 -3.54022 
358 1 0.1875 0.4375 0.125 0 -3.54022 
390 1 0.1875 0.5625 0.125 0 -3.54022 
393 1 0.25 0.5 0.125 6.32694e-34 -3.54022 
106 1 0.3125 0.4375 0 6.31089e-30 -3.54022 
112 1 0.375 0.4375 0.0625 0 -3.54022 
138 1 0.3125 0.5625 0 6.31089e-30 -3.54022 
139 1 0.3125 0.5 0.0625 3.15752e-30 -3.54022 
141 1 0.375 0.5 0 1.02463e-33 -3.54022 
144 1 0.375 0.5625 0.0625 0 -3.54022 
362 1 0.3125 0.4375 0.125 0 -3.54022 
394 1 0.3125 0.5625 0.125 0 -3.54022 
397 1 0.375 0.5 0.125 4.05308e-34 -3.54022 
110 1 0.4375 0.4375 0 0 -3.54022 
114 1 0.5625 0.4375 0 0 -3.54022 
116 1 0.5 0.4375 0.0625 1.41754e-33 -3.54022 
142 1 0.4375 0.5625 0 0 -3.54022 
143 1 0.4375 0.5 0.0625 2.17342e-33 -3.54022 
145 1 0.5 0.5 0 2.67207e-33 -3.54022 
146 1 0.5625 0.5625 0 0 -3.54022 
147 1 0.5625 0.5 0.0625 9.00058e-34 -3.54022 
148 1 0.5 0.5625 0.0625 9.12316e-35 -3.54022 
366 1 0.4375 0.4375 0.125 0 -3.54022 
370 1 0.5625 0.4375 0.125 0 -3.54022 
398 1 0.4375 0.5625 0.125 0 -3.54022 
401 1 0.5 0.5 0.125 1.17685e-33 -3.54022 
402 1 0.5625 0.5625 0.125 0 -3.54022 
118 1 0.6875 0.4375 0 6.31089e-30 -3.54022 
120 1 0.625 0.4375 0.0625 0 -3.54022 
149 1 0.625 0.5 0 1.81495e-34 -3.54022 
150 1 0.6875 0.5625 0 6.31089e-30 -3.54022 
151 1 0.6875 0.5 0.0625 3.15664e-30 -3.54022 
152 1 0.625 0.5625 0.0625 0 -3.54022 
374 1 0.6875 0.4375 0.125 0 -3.54022 
405 1 0.625 0.5 0.125 8.33535e-34 -3.54022 
406 1 0.6875 0.5625 0.125 0 -3.54022 
122 1 0.8125 0.4375 0 0 -3.54022 
124 1 0.75 0.4375 0.0625 0 -3.54022 
153 1 0.75 0.5 0 1.89328e-29 -3.54022 
154 1 0.8125 0.5625 0 0 -3.54022 
155 1 0.8125 0.5 0.0625 1.52733e-33 -3.54022 
156 1 0.75 0.5625 0.0625 0 -3.54022 
378 1 0.8125 0.4375 0.125 0 -3.54022 
409 1 0.75 0.5 0.125 3.12932e-33 -3.54022 
410 1 0.8125 0.5625 0.125 0 -3.54022 
126 1 0.9375 0.4375 0 0 -3.54022 
128 1 0.875 0.4375 0.0625 0 -3.54022 
157 1 0.875 0.5 0 3.86522e-34 -3.54022 
158 1 0.9375 0.5625 0 0 -3.54022 
159 1 0.9375 0.5 0.0625 2.90166e-33 -3.54022 
160 1 0.875 0.5625 0.0625 0 -3.54022 
382 1 0.9375 0.4375 0.125 0 -3.54022 
413 1 0.875 0.5 0.125 2.44612e-33 -3.54022 
414 1 0.9375 0.5625 0.125 0 -3.54022 
161 1 0 0.625 0 0 -3.54022 
162 1 0.0625 0.6875 0 0 -3.54022 
163 1 0.0625 0.625 0.0625 0 -3.54022 
164 1 0 0.6875 0.0625 0 -3.54022 
165 1 0.125 0.625 0 0 -3.54022 
168 1 0.125 0.6875 0.0625 0 -3.54022 
417 1 0 0.625 0.125 0 -3.54022 
418 1 0.0625 0.6875 0.125 0 -3.54022 
421 1 0.125 0.625 0.125 0 -3.54022 
166 1 0.1875 0.6875 0 0 -3.54022 
167 1 0.1875 0.625 0.0625 0 -3.54022 
169 1 0.25 0.625 0 1.89327e-29 -3.54022 
172 1 0.25 0.6875 0.0625 0 -3.54022 
422 1 0.1875 0.6875 0.125 0 -3.54022 
425 1 0.25 0.625 0.125 0 -3.54022 
170 1 0.3125 0.6875 0 6.31089e-30 -3.54022 
171 1 0.3125 0.625 0.0625 3.15544e-30 -3.54022 
173 1 0.375 0.625 0 0 -3.54022 
176 1 0.375 0.6875 0.0625 3.15544e-30 -3.54022 
426 1 0.3125 0.6875 0.125 0 -3.54022 
429 1 0.375 0.625 0.125 0 -3.54022 
174 1 0.4375 0.6875 0 6.31089e-30 -3.54022 
175 1 0.4375 0.625 0.0625 0 -3.54022 
177 1 0.5 0.625 0 2.33443e-35 -3.54022 
178 1 0.5625 0.6875 0 6.31089e-30 -3.54022 
179 1 0.5625 0.625 0.0625 0 -3.54022 
180 1 0.5 0.6875 0.0625 3.15546e-30 -3.54022 
430 1 0.4375 0.6875 0.125 0 -3.54022 
433 1 0.5 0.625 0.125 2.65259e-34 -3.54022 
434 1 0.5625 0.6875 0.125 0 -3.54022 
181 1 0.625 0.625 0 0 -3.54022 
182 1 0.6875 0.6875 0 6.31089e-30 -3.54022 
183 1 0.6875 0.625 0.0625 3.15544e-30 -3.54022 
184 1 0.625 0.6875 0.0625 3.15544e-30 -3.54022 
437 1 0.625 0.625 0.125 0 -3.54022 
438 1 0.6875 0.6875 0.125 0 -3.54022 
185 1 0.75 0.625 0 1.89327e-29 -3.54022 
186 1 0.8125 0.6875 0 0 -3.54022 
187 1 0.8125 0.625 0.0625 0 -3.54022 
188 1 0.75 0.6875 0.0625 0 -3.54022 
441 1 0.75 0.625 0.125 0 -3.54022 
442 1 0.8125 0.6875 0.125 0 -3.54022 
189 1 0.875 0.625 0 0 -3.54022 
190 1 0.9375 0.6875 0 0 -3.54022 
191 1 0.9375 0.625 0.0625 0 -3.54022 
192 1 0.875 0.6875 0.0625 0 -3.54022 
445 1 0.875 0.625 0.125 0 -3.54022 
446 1 0.9375 0.6875 0.125 0 -3.54022 
193 1 0 0.75 0 0 -3.54022 
194 1 0.0625 0.8125 0 0 -3.54022 
195 1 0.0625 0.75 0.0625 0 -3.54022 
196 1 0 0.8125 0.0625 0 -3.54022 
197 1 0.125 0.75 0 0 -3.54022 
200 1 0.125 0.8125 0.0625 0 -3.54022 
449 1 0 0.75 0.125 0 -3.54022 
450 1 0.0625 0.8125 0.125 0 -3.54022 
453 1 0.125 0.75 0.125 0 -3.54022 
198 1 0.1875 0.8125 0 0 -3.54022 
199 1 0.1875 0.75 0.0625 0 -3.54022 
201 1 0.25 0.75 0 0 -3.54022 
204 1 0.25 0.8125 0.0625 0 -3.54022 
454 1 0.1875 0.8125 0.125 0 -3.54022 
457 1 0.25 0.75 0.125 0 -3.54022 
202 1 0.3125 0.8125 0 0 -3.54022 
203 1 0.3125 0.75 0.0625 0 -3.54022 
205 1 0.375 0.75 0 1.89327e-29 -3.54022 
208 1 0.375 0.8125 0.0625 0 -3.54022 
458 1 0.3125 0.8125 0.125 0 -3.54022 
461 1 0.375 0.75 0.125 0 -3.54022 
206 1 0.4375 0.8125 0 0 -3.54022 
207 1 0.4375 0.75 0.0625 0 -3.54022 
209 1 0.5 0.75 0 1.89327e-29 -3.54022 
210 1 0.5625 0.8125 0 0 -3.54022 
211 1 0.5625 0.75 0.0625 0 -3.54022 
212 1 0.5 0.8125 0.0625 1.52459e-34 -3.54022 
462 1 0.4375 0.8125 0.125 0 -3.54022 
465 1 0.5 0.75 0.125 1.05669e-34 -3.54022 
466 1 0.5625 0.8125 0.125 0 -3.54022 
213 1 0.625 0.75 0 1.89327e-29 -3.54022 
214 1 0.6875 0.8125 0 0 -3.54022 
215 1 0.6875 0.75 0.0625 0 -3.54022 
216 1 0.625 0.8125 0.0625 0 -3.54022 
469 1 0.625 0.75 0.125 0 -3.54022 
470 1 0.6875 0.8125 0.125 0 -3.54022 
217 1 0.75 0.75 0 0 -3.54022 
218 1 0.8125 0.8125 0 0 -3.54022 
219 1 0.8125 0.75 0.0625 0 -3.54022 
220 1 0.75 0.8125 0.0625 0 -3.54022 
473 1 0.75 0.75 0.125 0 -3.54022 
474 1 0.8125 0.8125 0.125 0 -3.54022 
221 1 0.875 0.75 0 0 -3.54022 
222 1 0.9375 0.8125 0 0 -3.54022 
223 1 0.9375 0.75 0.0625 0 -3.54022 
224 1 0.875 0.8125 0.0625 0 -3.54022 
477 1 0.875 0.75 0.125 0 -3.54022 
478 1 0.9375 0.8125 0.125 0 -3.54022 
225 1 0 0.875 0 0 -3.54022 
226 1 0.0625 0.9375 0 0 -3.54022 
227 1 0.0625 0.875 0.0625 0 -3.54022 
228 1 0 0.9375 0.0625 0 -3.54022 
229 1 0.125 0.875 0 0 -3.54022 
232 1 0.125 0.9375 0.0625 0 -3.54022 
481 1 0 0.875 0.125 0 -3.54022 
482 1 0.0625 0.9375 0.125 0 -3.54022 
485 1 0.125 0.875 0.125 0 -3.54022 
230 1 0.1875 0.9375 0 0 -3.54022 
231 1 0.1875 0.875 0.0625 0 -3.54022 
233 1 0.25 0.875 0 0 -3.54022 
236 1 0.25 0.9375 0.0625 0 -3.54022 
486 1 0.1875 0.9375 0.125 0 -3.54022 
489 1 0.25 0.875 0.125 0 -3.54022 
234 1 0.3125 0.9375 0 0 -3.54022 
235 1 0.3125 0.875 0.0625 0 -3.54022 
237 1 0.375 0.875 0 0 -3.54022 
240 1 0.375 0.9375 0.0625 0 -3.54022 
490 1 0.3125 0.9375 0.125 0 -3.54022 
493 1 0.375 0.875 0.125 0 -3.54022 
238 1 0.4375 0.9375 0 0 -3.54022 
239 1 0.4375 0.875 0.0625 0 -3.54022 
241 1 0.5 0.875 0 5.07428e-34 -3.54022 
242 1 0.5625 0.9375 0 0 -3.54022 
243 1 0.5625 0.875 0.0625 0 -3.54022 
244 1 0.5 0.9375 0.0625 1.37946e-34 -3.54022 
494 1 0.4375 0.9375 0.125 0 -3.54022 
497 1 0.5 0.875 0.125 1.22239e-34 -3.54022 
498 1 0.5625 0.9375 0.125 0 -3.54022 
245 1 0.625 0.875 0 0 -3.54022 
246 1 0.6875 0.9375 0 0 -3.54022 
247 1 0.6875 0.875 0.0625 0 -3.54022 
248 1 0.625 0.9375 0.0625 0 -3.54022 
501 1 0.625 0.875 0.125 0 -3.54022 
502 1 0.6875 0.9375 0.125 0 -3.54022 
249 1 0.75 0.875 0 0 -3.54022 
250 1 0.8125 0.9375 0 0 -3.54022 
251 1 0.8125 0.875 0.0625 0 -3.54022 
252 1 0.75 0.9375 0.0625 0 -3.54022 
505 1 0.75 0.875 0.125 0 -3.54022 
506 1 0.8125 0.9375 0.125 0 -3.54022 
253 1 0.875 0.875 0 0 -3.54022 
254 1 0.9375 0.9375 0 0 -3.54022 
255 1 0.9375 0.875 0.0625 0 -3.54022 
256 1 0.875 0.9375 0.0625 0 -3.54022 
509 1 0.875 0.875 0.125 0 -3.54022 
510 1 0.9375 0.9375 0.125 0 -3.54022 
259 1 0.0625 0 0.1875 0 -3.54022 
260 1 0 0.0625 0.1875 0 -3.54022 
264 1 0.125 0.0625 0.1875 0 -3.54022 
291 1 0.0625 0.125 0.1875 0 -3.54022 
513 1 0 0 0.25 0 -3.54022 
514 1 0.0625 0.0625 0.25 0 -3.54022 
517 1 0.125 0 0.25 0 -3.54022 
545 1 0 0.125 0.25 0 -3.54022 
549 1 0.125 0.125 0.25 0 -3.54022 
263 1 0.1875 0 0.1875 0 -3.54022 
268 1 0.25 0.0625 0.1875 0 -3.54022 
295 1 0.1875 0.125 0.1875 0 -3.54022 
518 1 0.1875 0.0625 0.25 0 -3.54022 
521 1 0.25 0 0.25 0 -3.54022 
553 1 0.25 0.125 0.25 0 -3.54022 
267 1 0.3125 0 0.1875 0 -3.54022 
272 1 0.375 0.0625 0.1875 0 -3.54022 
299 1 0.3125 0.125 0.1875 0 -3.54022 
522 1 0.3125 0.0625 0.25 0 -3.54022 
525 1 0.375 0 0.25 1.89327e-29 -3.54022 
557 1 0.375 0.125 0.25 0 -3.54022 
271 1 0.4375 0 0.1875 0 -3.54022 
275 1 0.5625 0 0.1875 0 -3.54022 
276 1 0.5 0.0625 0.1875 2.49898e-34 -3.54022 
303 1 0.4375 0.125 0.1875 0 -3.54022 
307 1 0.5625 0.125 0.1875 0 -3.54022 
526 1 0.4375 0.0625 0.25 0 -3.54022 
529 1 0.5 0 0.25 1.89339e-29 -3.54022 
530 1 0.5625 0.0625 0.25 0 -3.54022 
561 1 0.5 0.125 0.25 3.61624e-36 -3.54022 
279 1 0.6875 0 0.1875 0 -3.54022 
280 1 0.625 0.0625 0.1875 0 -3.54022 
311 1 0.6875 0.125 0.1875 0 -3.54022 
533 1 0.625 0 0.25 1.89327e-29 -3.54022 
534 1 0.6875 0.0625 0.25 0 -3.54022 
565 1 0.625 0.125 0.25 0 -3.54022 
283 1 0.8125 0 0.1875 0 -3.54022 
284 1 0.75 0.0625 0.1875 0 -3.54022 
315 1 0.8125 0.125 0.1875 0 -3.54022 
537 1 0.75 0 0.25 0 -3.54022 
538 1 0.8125 0.0625 0.25 0 -3.54022 
569 1 0.75 0.125 0.25 0 -3.54022 
287 1 0.9375 0 0.1875 0 -3.54022 
288 1 0.875 0.0625 0.1875 0 -3.54022 
319 1 0.9375 0.125 0.1875 0 -3.54022 
541 1 0.875 0 0.25 0 -3.54022 
542 1 0.9375 0.0625 0.25 0 -3.54022 
573 1 0.875 0.125 0.25 0 -3.54022 
292 1 0 0.1875 0.1875 0 -3.54022 
296 1 0.125 0.1875 0.1875 0 -3.54022 
323 1 0.0625 0.25 0.1875 0 -3.54022 
546 1 0.0625 0.1875 0.25 0 -3.54022 
577 1 0 0.25 0.25 0 -3.54022 
581 1 0.125 0.25 0.25 0 -3.54022 
300 1 0.25 0.1875 0.1875 0 -3.54022 
327 1 0.1875 0.25 0.1875 0 -3.54022 
550 1 0.1875 0.1875 0.25 0 -3.54022 
585 1 0.25 0.25 0.25 5.6798e-29 -3.54022 
304 1 0.375 0.1875 0.1875 0 -3.54022 
331 1 0.3125 0.25 0.1875 3.15544e-30 -3.54022 
554 1 0.3125 0.1875 0.25 3.15544e-30 -3.54022 
589 1 0.375 0.25 0.25 3.78653e-29 -3.54022 
308 1 0.5 0.1875 0.1875 5.81824e-35 -3.54022 
335 1 0.4375 0.25 0.1875 0 -3.54022 
339 1 0.5625 0.25 0.1875 0 -3.54022 
558 1 0.4375 0.1875 0.25 0 -3.54022 
562 1 0.5625 0.1875 0.25 0 -3.54022 
593 1 0.5 0.25 0.25 3.78653e-29 -3.54022 
312 1 0.625 0.1875 0.1875 0 -3.54022 
343 1 0.6875 0.25 0.1875 3.15544e-30 -3.54022 
566 1 0.6875 0.1875 0.25 3.15544e-30 -3.54022 
597 1 0.625 0.25 0.25 3.78653e-29 -3.54022 
316 1 0.75 0.1875 0.1875 0 -3.54022 
347 1 0.8125 0.25 0.1875 0 -3.54022 
570 1 0.8125 0.1875 0.25 0 -3.54022 
601 1 0.75 0.25 0.25 5.6798e-29 -3.54022 
320 1 0.875 0.1875 0.1875 0 -3.54022 
351 1 0.9375 0.25 0.1875 0 -3.54022 
574 1 0.9375 0.1875 0.25 0 -3.54022 
605 1 0.875 0.25 0.25 0 -3.54022 
324 1 0 0.3125 0.1875 0 -3.54022 
328 1 0.125 0.3125 0.1875 0 -3.54022 
355 1 0.0625 0.375 0.1875 0 -3.54022 
578 1 0.0625 0.3125 0.25 0 -3.54022 
609 1 0 0.375 0.25 1.89327e-29 -3.54022 
613 1 0.125 0.375 0.25 0 -3.54022 
332 1 0.25 0.3125 0.1875 3.15544e-30 -3.54022 
359 1 0.1875 0.375 0.1875 0 -3.54022 
582 1 0.1875 0.3125 0.25 3.15544e-30 -3.54022 
617 1 0.25 0.375 0.25 3.78653e-29 -3.54022 
336 1 0.375 0.3125 0.1875 3.15544e-30 -3.54022 
363 1 0.3125 0.375 0.1875 3.15544e-30 -3.54022 
586 1 0.3125 0.3125 0.25 3.15544e-29 -3.54022 
621 1 0.375 0.375 0.25 1.26218e-29 -3.54022 
340 1 0.5 0.3125 0.1875 3.15557e-30 -3.54022 
367 1 0.4375 0.375 0.1875 0 -3.54022 
371 1 0.5625 0.375 0.1875 0 -3.54022 
590 1 0.4375 0.3125 0.25 2.20881e-29 -3.54022 
594 1 0.5625 0.3125 0.25 2.20881e-29 -3.54022 
625 1 0.5 0.375 0.25 1.26228e-29 -3.54022 
344 1 0.625 0.3125 0.1875 3.15544e-30 -3.54022 
375 1 0.6875 0.375 0.1875 3.15544e-30 -3.54022 
598 1 0.6875 0.3125 0.25 3.15544e-29 -3.54022 
629 1 0.625 0.375 0.25 1.26218e-29 -3.54022 
348 1 0.75 0.3125 0.1875 3.15544e-30 -3.54022 
379 1 0.8125 0.375 0.1875 0 -3.54022 
602 1 0.8125 0.3125 0.25 3.15544e-30 -3.54022 
633 1 0.75 0.375 0.25 3.78653e-29 -3.54022 
352 1 0.875 0.3125 0.1875 0 -3.54022 
383 1 0.9375 0.375 0.1875 0 -3.54022 
606 1 0.9375 0.3125 0.25 0 -3.54022 
637 1 0.875 0.375 0.25 0 -3.54022 
356 1 0 0.4375 0.1875 0 -3.54022 
360 1 0.125 0.4375 0.1875 0 -3.54022 
387 1 0.0625 0.5 0.1875 6.80787e-34 -3.54022 
388 1 0 0.5625 0.1875 0 -3.54022 
392 1 0.125 0.5625 0.1875 0 -3.54022 
610 1 0.0625 0.4375 0.25 0 -3.54022 
641 1 0 0.5 0.25 1.89372e-29 -3.54022 
642 1 0.0625 0.5625 0.25 0 -3.54022 
645 1 0.125 0.5 0.25 2.22747e-35 -3.54022 
364 1 0.25 0.4375 0.1875 0 -3.54022 
391 1 0.1875 0.5 0.1875 2.21168e-34 -3.54022 
396 1 0.25 0.5625 0.1875 0 -3.54022 
614 1 0.1875 0.4375 0.25 0 -3.54022 
646 1 0.1875 0.5625 0.25 0 -3.54022 
649 1 0.25 0.5 0.25 3.78654e-29 -3.54022 
368 1 0.375 0.4375 0.1875 0 -3.54022 
395 1 0.3125 0.5 0.1875 3.15555e-30 -3.54022 
400 1 0.375 0.5625 0.1875 0 -3.54022 
618 1 0.3125 0.4375 0.25 2.20881e-29 -3.54022 
650 1 0.3125 0.5625 0.25 2.20881e-29 -3.54022 
653 1 0.375 0.5 0.25 1.2622e-29 -3.54022 
372 1 0.5 0.4375 0.1875 3.88958e-35 -3.54022 
399 1 0.4375 0.5 0.1875 1.22463e-33 -3.54022 
403 1 0.5625 0.5 0.1875 7.22484e-34 -3.54022 
404 1 0.5 0.5625 0.1875 5.90347e-34 -3.54022 
622 1 0.4375 0.4375 0.25 1.26218e-29 -3.54022 
626 1 0.5625 0.4375 0.25 1.26218e-29 -3.54022 
654 1 0.4375 0.5625 0.25 1.26218e-29 -3.54022 
657 1 0.5 0.5 0.25 1.26226e-29 -3.54022 
658 1 0.5625 0.5625 0.25 1.26218e-29 -3.54022 
376 1 0.625 0.4375 0.1875 0 -3.54022 
407 1 0.6875 0.5 0.1875 3.15705e-30 -3.54022 
408 1 0.625 0.5625 0.1875 0 -3.54022 
630 1 0.6875 0.4375 0.25 2.20881e-29 -3.54022 
661 1 0.625 0.5 0.25 1.26224e-29 -3.54022 
662 1 0.6875 0.5625 0.25 2.20881e-29 -3.54022 
380 1 0.75 0.4375 0.1875 0 -3.54022 
411 1 0.8125 0.5 0.1875 3.38503e-33 -3.54022 
412 1 0.75 0.5625 0.1875 0 -3.54022 
634 1 0.8125 0.4375 0.25 0 -3.54022 
665 1 0.75 0.5 0.25 3.78661e-29 -3.54022 
666 1 0.8125 0.5625 0.25 0 -3.54022 
384 1 0.875 0.4375 0.1875 0 -3.54022 
415 1 0.9375 0.5 0.1875 3.30861e-33 -3.54022 
416 1 0.875 0.5625 0.1875 0 -3.54022 
638 1 0.9375 0.4375 0.25 0 -3.54022 
669 1 0.875 0.5 0.25 4.00133e-33 -3.54022 
670 1 0.9375 0.5625 0.25 0 -3.54022 
419 1 0.0625 0.625 0.1875 0 -3.54022 
420 1 0 0.6875 0.1875 0 -3.54022 
424 1 0.125 0.6875 0.1875 0 -3.54022 
673 1 0 0.625 0.25 1.89327e-29 -3.54022 
674 1 0.0625 0.6875 0.25 0 -3.54022 
677 1 0.125 0.625 0.25 0 -3.54022 
423 1 0.1875 0.625 0.1875 0 -3.54022 
428 1 0.25 0.6875 0.1875 3.15544e-30 -3.54022 
678 1 0.1875 0.6875 0.25 3.15544e-30 -3.54022 
681 1 0.25 0.625 0.25 3.78653e-29 -3.54022 
427 1 0.3125 0.625 0.1875 3.15544e-30 -3.54022 
432 1 0.375 0.6875 0.1875 3.15544e-30 -3.54022 
682 1 0.3125 0.6875 0.25 3.15544e-29 -3.54022 
685 1 0.375 0.625 0.25 1.26218e-29 -3.54022 
431 1 0.4375 0.625 0.1875 0 -3.54022 
435 1 0.5625 0.625 0.1875 0 -3.54022 
436 1 0.5 0.6875 0.1875 3.15548e-30 -3.54022 
686 1 0.4375 0.6875 0.25 2.20881e-29 -3.54022 
689 1 0.5 0.625 0.25 1.26218e-29 -3.54022 
690 1 0.5625 0.6875 0.25 2.20881e-29 -3.54022 
439 1 0.6875 0.625 0.1875 3.15544e-30 -3.54022 
440 1 0.625 0.6875 0.1875 3.15544e-30 -3.54022 
693 1 0.625 0.625 0.25 1.26218e-29 -3.54022 
694 1 0.6875 0.6875 0.25 3.15544e-29 -3.54022 
443 1 0.8125 0.625 0.1875 0 -3.54022 
444 1 0.75 0.6875 0.1875 3.15544e-30 -3.54022 
697 1 0.75 0.625 0.25 3.78653e-29 -3.54022 
698 1 0.8125 0.6875 0.25 3.15544e-30 -3.54022 
447 1 0.9375 0.625 0.1875 0 -3.54022 
448 1 0.875 0.6875 0.1875 0 -3.54022 
701 1 0.875 0.625 0.25 0 -3.54022 
702 1 0.9375 0.6875 0.25 0 -3.54022 
451 1 0.0625 0.75 0.1875 0 -3.54022 
452 1 0 0.8125 0.1875 0 -3.54022 
456 1 0.125 0.8125 0.1875 0 -3.54022 
705 1 0 0.75 0.25 0 -3.54022 
706 1 0.0625 0.8125 0.25 0 -3.54022 
709 1 0.125 0.75 0.25 0 -3.54022 
455 1 0.1875 0.75 0.1875 0 -3.54022 
460 1 0.25 0.8125 0.1875 0 -3.54022 
710 1 0.1875 0.8125 0.25 0 -3.54022 
713 1 0.25 0.75 0.25 5.6798e-29 -3.54022 
459 1 0.3125 0.75 0.1875 3.15544e-30 -3.54022 
464 1 0.375 0.8125 0.1875 0 -3.54022 
714 1 0.3125 0.8125 0.25 3.15544e-30 -3.54022 
717 1 0.375 0.75 0.25 3.78653e-29 -3.54022 
463 1 0.4375 0.75 0.1875 0 -3.54022 
467 1 0.5625 0.75 0.1875 0 -3.54022 
468 1 0.5 0.8125 0.1875 2.14937e-35 -3.54022 
718 1 0.4375 0.8125 0.25 0 -3.54022 
721 1 0.5 0.75 0.25 3.78655e-29 -3.54022 
722 1 0.5625 0.8125 0.25 0 -3.54022 
471 1 0.6875 0.75 0.1875 3.15544e-30 -3.54022 
472 1 0.625 0.8125 0.1875 0 -3.54022 
725 1 0.625 0.75 0.25 3.78653e-29 -3.54022 
726 1 0.6875 0.8125 0.25 3.15544e-30 -3.54022 
475 1 0.8125 0.75 0.1875 0 -3.54022 
476 1 0.75 0.8125 0.1875 0 -3.54022 
729 1 0.75 0.75 0.25 5.6798e-29 -3.54022 
730 1 0.8125 0.8125 0.25 0 -3.54022 
479 1 0.9375 0.75 0.1875 0 -3.54022 
480 1 0.875 0.8125 0.1875 0 -3.54022 
733 1 0.875 0.75 0.25 0 -3.54022 
734 1 0.9375 0.8125 0.25 0 -3.54022 
483 1 0.0625 0.875 0.1875 0 -3.54022 
484 1 0 0.9375 0.1875 0 -3.54022 
488 1 0.125 0.9375 0.1875 0 -3.54022 
737 1 0 0.875 0.25 0 -3.54022 
738 1 0.0625 0.9375 0.25 0 -3.54022 
741 1 0.125 0.875 0.25 0 -3.54022 
487 1 0.1875 0.875 0.1875 0 -3.54022 
492 1 0.25 0.9375 0.1875 0 -3.54022 
742 1 0.1875 0.9375 0.25 0 -3.54022 
745 1 0.25 0.875 0.25 0 -3.54022 
491 1 0.3125 0.875 0.1875 0 -3.54022 
496 1 0.375 0.9375 0.1875 0 -3.54022 
746 1 0.3125 0.9375 0.25 0 -3.54022 
749 1 0.375 0.875 0.25 0 -3.54022 
495 1 0.4375 0.875 0.1875 0 -3.54022 
499 1 0.5625 0.875 0.1875 0 -3.54022 
500 1 0.5 0.9375 0.1875 1.96928e-34 -3.54022 
750 1 0.4375 0.9375 0.25 0 -3.54022 
753 1 0.5 0.875 0.25 1.29607e-34 -3.54022 
754 1 0.5625 0.9375 0.25 0 -3.54022 
503 1 0.6875 0.875 0.1875 0 -3.54022 
504 1 0.625 0.9375 0.1875 0 -3.54022 
757 1 0.625 0.875 0.25 0 -3.54022 
758 1 0.6875 0.9375 0.25 0 -3.54022 
507 1 0.8125 0.875 0.1875 0 -3.54022 
508 1 0.75 0.9375 0.1875 0 -3.54022 
761 1 0.75 0.875 0.25 0 -3.54022 
762 1 0.8125 0.9375 0.25 0 -3.54022 
511 1 0.9375 0.875 0.1875 0 -3.54022 
512 1 0.875 0.9375 0.1875 0 -3.54022 
765 1 0.875 0.875 0.25 0 -3.54022 
766 1 0.9375 0.9375 0.25 0 -3.54022 
515 1 0.0625 0 0.3125 0 -3.54022 
516 1 0 0.0625 0.3125 0 -3.54022 
520 1 0.125 0.0625 0.3125 0 -3.54022 
547 1 0.0625 0.125 0.3125 0 -3.54022 
769 1 0 0 0.375 0 -3.54022 
770 1 0.0625 0.0625 0.375 0 -3.54022 
773 1 0.125 0 0.375 0 -3.54022 
801 1 0 0.125 0.375 0 -3.54022 
805 1 0.125 0.125 0.375 0 -3.54022 
519 1 0.1875 0 0.3125 0 -3.54022 
524 1 0.25 0.0625 0.3125 0 -3.54022 
551 1 0.1875 0.125 0.3125 0 -3.54022 
774 1 0.1875 0.0625 0.375 0 -3.54022 
777 1 0.25 0 0.375 1.89327e-29 -3.54022 
809 1 0.25 0.125 0.375 0 -3.54022 
523 1 0.3125 0 0.3125 6.31089e-30 -3.54022 
528 1 0.375 0.0625 0.3125 3.15544e-30 -3.54022 
555 1 0.3125 0.125 0.3125 0 -3.54022 
778 1 0.3125 0.0625 0.375 3.15544e-30 -3.54022 
781 1 0.375 0 0.375 0 -3.54022 
813 1 0.375 0.125 0.375 0 -3.54022 
527 1 0.4375 0 0.3125 6.31089e-30 -3.54022 
531 1 0.5625 0 0.3125 6.31089e-30 -3.54022 
532 1 0.5 0.0625 0.3125 3.1555e-30 -3.54022 
559 1 0.4375 0.125 0.3125 0 -3.54022 
563 1 0.5625 0.125 0.3125 0 -3.54022 
782 1 0.4375 0.0625 0.375 0 -3.54022 
785 1 0.5 0 0.375 4.36252e-34 -3.54022 
786 1 0.5625 0.0625 0.375 0 -3.54022 
817 1 0.5 0.125 0.375 1.35017e-34 -3.54022 
535 1 0.6875 0 0.3125 6.31089e-30 -3.54022 
536 1 0.625 0.0625 0.3125 3.15544e-30 -3.54022 
567 1 0.6875 0.125 0.3125 0 -3.54022 
789 1 0.625 0 0.375 0 -3.54022 
790 1 0.6875 0.0625 0.375 3.15544e-30 -3.54022 
821 1 0.625 0.125 0.375 0 -3.54022 
539 1 0.8125 0 0.3125 0 -3.54022 
540 1 0.75 0.0625 0.3125 0 -3.54022 
571 1 0.8125 0.125 0.3125 0 -3.54022 
793 1 0.75 0 0.375 1.89327e-29 -3.54022 
794 1 0.8125 0.0625 0.375 0 -3.54022 
825 1 0.75 0.125 0.375 0 -3.54022 
543 1 0.9375 0 0.3125 0 -3.54022 
544 1 0.875 0.0625 0.3125 0 -3.54022 
575 1 0.9375 0.125 0.3125 0 -3.54022 
797 1 0.875 0 0.375 0 -3.54022 
798 1 0.9375 0.0625 0.375 0 -3.54022 
829 1 0.875 0.125 0.375 0 -3.54022 
548 1 0 0.1875 0.3125 0 -3.54022 
552 1 0.125 0.1875 0.3125 0 -3.54022 
579 1 0.0625 0.25 0.3125 0 -3.54022 
802 1 0.0625 0.1875 0.375 0 -3.54022 
833 1 0 0.25 0.375 1.89327e-29 -3.54022 
837 1 0.125 0.25 0.375 0 -3.54022 
556 1 0.25 0.1875 0.3125 3.15544e-30 -3.54022 
583 1 0.1875 0.25 0.3125 3.15544e-30 -3.54022 
806 1 0.1875 0.1875 0.375 0 -3.54022 
841 1 0.25 0.25 0.375 3.78653e-29 -3.54022 
560 1 0.375 0.1875 0.3125 3.15544e-30 -3.54022 
587 1 0.3125 0.25 0.3125 3.15544e-29 -3.54022 
810 1 0.3125 0.1875 0.375 3.15544e-30 -3.54022 
845 1 0.375 0.25 0.375 1.26218e-29 -3.54022 
564 1 0.5 0.1875 0.3125 3.15575e-30 -3.54022 
591 1 0.4375 0.25 0.3125 2.20881e-29 -3.54022 
595 1 0.5625 0.25 0.3125 2.20881e-29 -3.54022 
814 1 0.4375 0.1875 0.375 0 -3.54022 
818 1 0.5625 0.1875 0.375 0 -3.54022 
849 1 0.5 0.25 0.375 1.26218e-29 -3.54022 
568 1 0.625 0.1875 0.3125 3.15544e-30 -3.54022 
599 1 0.6875 0.25 0.3125 3.15544e-29 -3.54022 
822 1 0.6875 0.1875 0.375 3.15544e-30 -3.54022 
853 1 0.625 0.25 0.375 1.26218e-29 -3.54022 
572 1 0.75 0.1875 0.3125 3.15544e-30 -3.54022 
603 1 0.8125 0.25 0.3125 3.15544e-30 -3.54022 
826 1 0.8125 0.1875 0.375 0 -3.54022 
857 1 0.75 0.25 0.375 3.78653e-29 -3.54022 
576 1 0.875 0.1875 0.3125 0 -3.54022 
607 1 0.9375 0.25 0.3125 0 -3.54022 
830 1 0.9375 0.1875 0.375 0 -3.54022 
861 1 0.875 0.25 0.375 0 -3.54022 
580 1 0 0.3125 0.3125 6.31089e-30 -3.54022 
584 1 0.125 0.3125 0.3125 0 -3.54022 
611 1 0.0625 0.375 0.3125 3.15544e-30 -3.54022 
834 1 0.0625 0.3125 0.375 3.15544e-30 -3.54022 
865 1 0 0.375 0.375 0 -3.54022 
869 1 0.125 0.375 0.375 0 -3.54022 
588 1 0.25 0.3125 0.3125 3.15544e-29 -3.54022 
615 1 0.1875 0.375 0.3125 3.15544e-30 -3.54022 
838 1 0.1875 0.3125 0.375 3.15544e-30 -3.54022 
873 1 0.25 0.375 0.375 1.26218e-29 -3.54022 
592 1 0.375 0.3125 0.3125 2.52435e-29 -3.54022 
619 1 0.3125 0.375 0.3125 2.52435e-29 -3.54022 
842 1 0.3125 0.3125 0.375 2.52435e-29 -3.54022 
877 1 0.375 0.375 0.375 0 -3.54022 
596 1 0.5 0.3125 0.3125 2.52436e-29 -3.54022 
623 1 0.4375 0.375 0.3125 1.26218e-29 -3.54022 
627 1 0.5625 0.375 0.3125 1.26218e-29 -3.54022 
846 1 0.4375 0.3125 0.375 1.26218e-29 -3.54022 
850 1 0.5625 0.3125 0.375 1.26218e-29 -3.54022 
881 1 0.5 0.375 0.375 5.65017e-35 -3.55056 
600 1 0.625 0.3125 0.3125 2.52435e-29 -3.54022 
631 1 0.6875 0.375 0.3125 2.52435e-29 -3.54022 
854 1 0.6875 0.3125 0.375 2.52435e-29 -3.54022 
885 1 0.625 0.375 0.375 0 -3.54022 
604 1 0.75 0.3125 0.3125 3.15544e-29 -3.54022 
635 1 0.8125 0.375 0.3125 3.15544e-30 -3.54022 
858 1 0.8125 0.3125 0.375 3.15544e-30 -3.54022 
889 1 0.75 0.375 0.375 1.26218e-29 -3.54022 
608 1 0.875 0.3125 0.3125 0 -3.54022 
639 1 0.9375 0.375 0.3125 3.15544e-30 -3.54022 
862 1 0.9375 0.3125 0.375 3.15544e-30 -3.54022 
893 1 0.875 0.375 0.375 0 -3.54022 
612 1 0 0.4375 0.3125 6.31089e-30 -3.54022 
616 1 0.125 0.4375 0.3125 0 -3.54022 
643 1 0.0625 0.5 0.3125 3.156e-30 -3.54022 
644 1 0 0.5625 0.3125 6.31089e-30 -3.54022 
648 1 0.125 0.5625 0.3125 0 -3.54022 
866 1 0.0625 0.4375 0.375 0 -3.54022 
897 1 0 0.5 0.375 4.07988e-33 -3.54022 
898 1 0.0625 0.5625 0.375 0 -3.54022 
901 1 0.125 0.5 0.375 1.10577e-33 -3.54022 
620 1 0.25 0.4375 0.3125 2.20881e-29 -3.54022 
647 1 0.1875 0.5 0.3125 3.15555e-30 -3.54022 
652 1 0.25 0.5625 0.3125 2.20881e-29 -3.54022 
870 1 0.1875 0.4375 0.375 0 -3.54022 
902 1 0.1875 0.5625 0.375 0 -3.54022 
905 1 0.25 0.5 0.375 1.26231e-29 -3.54022 
624 1 0.375 0.4375 0.3125 1.26218e-29 -3.54022 
651 1 0.3125 0.5 0.3125 2.52439e-29 -3.54022 
656 1 0.375 0.5625 0.3125 1.26218e-29 -3.54022 
874 1 0.3125 0.4375 0.375 1.26218e-29 -3.54022 
906 1 0.3125 0.5625 0.375 1.26218e-29 -3.54022 
909 1 0.375 0.5 0.375 1.43495e-34 -3.54022 