ITEM: TIMESTEP
68
ITEM: NUMBER OF ATOMS
2049
ITEM: BOX BOUNDS pp pp pp
-1.4460000000000001e+01 1.4460000000000001e+01
-1.4460000000000001e+01 1.4460000000000001e+01
-1.4460000000000001e+01 1.4460000000000001e+01
ITEM: ATOMS id type xs ys zs c_csym c_eng 
1 1 1.65842e-14 -2.69947e-05 1.80584e-14 1.12465e-07 -3.54016 
2 1 0.0624696 0.0624497 1.4803e-14 5.67794e-07 -3.54016 
3 1 0.062471 -2.90412e-05 0.062471 4.18221e-07 -3.54016 
4 1 1.36974e-14 0.0624497 0.0624696 5.67794e-07 -3.54016 
5 1 0.12495 -3.03662e-05 1.52329e-14 5.67794e-07 -3.54016 
8 1 0.124942 0.0624423 0.0624628 1.51045e-06 -3.54017 
33 1 1.37588e-14 0.124938 1.52944e-14 4.7208e-07 -3.54015 
35 1 0.0624634 0.124934 0.0624634 1.31178e-06 -3.54016 
37 1 0.12494 0.124933 2.51835e-15 1.88107e-06 -3.54017 
257 1 1.37588e-14 -3.03662e-05 0.12495 5.67794e-07 -3.54016 
258 1 0.0624628 0.0624423 0.124942 1.51045e-06 -3.54017 
261 1 0.124942 -3.71785e-05 0.124942 1.51045e-06 -3.54017 
289 1 2.45693e-15 0.124933 0.12494 1.88107e-06 -3.54017 
293 1 0.12492 0.124916 0.12492 3.86419e-06 -3.54018 
6 1 0.187433 0.0624404 2.3955e-15 1.88107e-06 -3.54017 
7 1 0.187434 -3.65687e-05 0.0624634 1.31178e-06 -3.54016 
9 1 0.249935 -3.73753e-05 7.98501e-15 1.07804e-06 -3.54015 
12 1 0.249927 0.0624277 0.0624486 3.48183e-06 -3.54017 
39 1 0.18742 0.12492 0.0624457 3.85098e-06 -3.54019 
41 1 0.24993 0.124925 -2.70262e-14 3.95498e-06 -3.5402 
262 1 0.187416 0.0624204 0.12492 3.86419e-06 -3.54018 
265 1 0.249927 -5.14258e-05 0.124928 3.48183e-06 -3.54017 
297 1 0.249895 0.124883 0.12488 8.59168e-06 -3.5402 
10 1 0.312442 0.0624319 -1.70756e-14 3.14435e-06 -3.54016 
11 1 0.312441 -4.53395e-05 0.0624547 2.31336e-06 -3.54014 
13 1 0.374958 -4.27581e-05 -4.91385e-16 1.39475e-06 -3.54011 
16 1 0.374954 0.0624182 0.0624378 5.52978e-06 -3.54016 
43 1 0.312434 0.12491 0.0624284 6.47818e-06 -3.54021 
45 1 0.374964 0.124929 -5.34995e-14 4.75474e-06 -3.54024 
266 1 0.312423 0.0623959 0.124896 8.0602e-06 -3.54018 
269 1 0.374954 -6.21788e-05 0.124918 5.52978e-06 -3.54016 
301 1 0.374929 0.12486 0.124855 1.62305e-05 -3.54016 
14 1 0.43748 0.0624298 -3.67925e-14 3.82288e-06 -3.54016 
15 1 0.437477 -5.03738e-05 0.0624496 3.25208e-06 -3.54011 
17 1 0.5 -4.53359e-05 -9.27489e-15 1.62009e-06 -3.54008 
18 1 0.56252 0.0624298 -3.67925e-14 3.82288e-06 -3.54016 
19 1 0.562523 -5.03738e-05 0.0624496 3.25208e-06 -3.54011 
20 1 0.5 0.0624144 0.0624342 7.01064e-06 -3.54014 
47 1 0.437478 0.12491 0.062425 8.16447e-06 -3.54022 
49 1 0.5 0.124937 -4.04778e-14 6.40627e-06 -3.54031 
51 1 0.562522 0.12491 0.062425 8.16447e-06 -3.54022 
270 1 0.437468 0.0623834 0.124883 1.23897e-05 -3.54015 
273 1 0.5 -6.58183e-05 0.124914 7.01064e-06 -3.54014 
274 1 0.562532 0.0623834 0.124883 1.23897e-05 -3.54015 
305 1 0.5 0.124845 0.124849 2.85844e-05 -3.54008 
21 1 0.625042 -4.27581e-05 3.07116e-16 1.39475e-06 -3.54011 
22 1 0.687558 0.0624319 -1.62771e-14 3.14435e-06 -3.54016 
23 1 0.687559 -4.53395e-05 0.0624547 2.31336e-06 -3.54014 
24 1 0.625046 0.0624182 0.0624378 5.52978e-06 -3.54016 
53 1 0.625036 0.124929 -5.29467e-14 4.75474e-06 -3.54024 
55 1 0.687566 0.12491 0.0624284 6.47818e-06 -3.54021 
277 1 0.625046 -6.21788e-05 0.124918 5.52978e-06 -3.54016 
278 1 0.687577 0.0623959 0.124896 8.0602e-06 -3.54018 
309 1 0.625071 0.12486 0.124855 1.62305e-05 -3.54016 
25 1 0.750065 -3.73753e-05 8.72208e-15 1.07804e-06 -3.54015 
26 1 0.812567 0.0624404 3.00973e-15 1.88107e-06 -3.54017 
27 1 0.812566 -3.65687e-05 0.0624634 1.31178e-06 -3.54016 
28 1 0.750073 0.0624277 0.0624486 3.48183e-06 -3.54017 
57 1 0.75007 0.124925 -2.62277e-14 3.95498e-06 -3.5402 
59 1 0.81258 0.12492 0.0624457 3.85098e-06 -3.54019 
281 1 0.750073 -5.14258e-05 0.124928 3.48183e-06 -3.54017 
282 1 0.812584 0.0624204 0.12492 3.86419e-06 -3.54018 
313 1 0.750105 0.124883 0.12488 8.59168e-06 -3.5402 
29 1 0.87505 -3.03662e-05 1.55401e-14 5.67794e-07 -3.54016 
30 1 0.93753 0.0624497 1.52944e-14 5.67794e-07 -3.54016 
31 1 0.937529 -2.90412e-05 0.062471 4.18221e-07 -3.54016 
32 1 0.875058 0.0624423 0.0624628 1.51045e-06 -3.54017 
61 1 0.87506 0.124933 3.00973e-15 1.88107e-06 -3.54017 
63 1 0.937537 0.124934 0.0624634 1.31178e-06 -3.54016 
285 1 0.875058 -3.71785e-05 0.124942 1.51045e-06 -3.54017 
286 1 0.937537 0.0624423 0.124942 1.51045e-06 -3.54017 
317 1 0.87508 0.124916 0.12492 3.86419e-06 -3.54018 
34 1 0.0624626 0.187435 7.73931e-15 1.07804e-06 -3.54015 
36 1 7.12508e-15 0.187435 0.0624626 1.07804e-06 -3.54015 
40 1 0.124928 0.187427 0.0624486 3.48183e-06 -3.54017 
65 1 1.06876e-14 0.249944 1.16704e-14 2.58378e-07 -3.54012 
67 1 0.0624547 0.249941 0.0624547 2.31336e-06 -3.54014 
69 1 0.124932 0.249942 -1.68299e-14 3.14435e-06 -3.54016 
290 1 0.0624486 0.187427 0.124928 3.48183e-06 -3.54017 
321 1 -1.61543e-14 0.249942 0.124932 3.14435e-06 -3.54016 
325 1 0.124896 0.249923 0.124896 8.0602e-06 -3.54018 
38 1 0.187425 0.18743 -2.69648e-14 3.95498e-06 -3.5402 
44 1 0.249918 0.187418 0.0624251 6.74851e-06 -3.54022 
71 1 0.18741 0.249934 0.0624284 6.47818e-06 -3.54021 
73 1 0.249939 0.249951 -5.89048e-14 5.74966e-06 -3.54028 
294 1 0.187383 0.187395 0.12488 8.59168e-06 -3.5402 
329 1 0.249866 0.249892 0.124841 1.6681e-05 -3.54019 
42 1 0.312451 0.187439 -5.93962e-14 5.74966e-06 -3.54028 
48 1 0.37496 0.187426 0.0624252 9.50407e-06 -3.54029 
75 1 0.312444 0.249944 0.0624269 1.08101e-05 -3.54031 
77 1 0.374987 0.24998 -1.68299e-14 1.98927e-05 -3.54043 
298 1 0.312392 0.187366 0.124841 1.6681e-05 -3.54019 
333 1 0.374924 0.249888 0.124857 2.74469e-05 -3.54021 
46 1 0.43749 0.187461 -2.86846e-14 1.35226e-05 -3.5404 
50 1 0.56251 0.187461 -2.83775e-14 1.35226e-05 -3.5404 
52 1 0.5 0.187439 0.0624442 1.60809e-05 -3.54039 
79 1 0.437492 0.249971 0.0624707 3.14272e-05 -3.54043 
81 1 0.5 0.249991 -7.12508e-15 1.3098e-05 -3.54032 
83 1 0.562508 0.249971 0.0624707 3.14272e-05 -3.54043 
302 1 0.43746 0.187354 0.124847 2.91123e-05 -3.54015 
306 1 0.56254 0.187354 0.124847 2.91123e-05 -3.54015 
337 1 0.5 0.249914 0.124923 8.34697e-05 -3.54061 
54 1 0.687549 0.187439 -5.86591e-14 5.74966e-06 -3.54028 
56 1 0.62504 0.187426 0.0624252 9.50407e-06 -3.54029 
85 1 0.625013 0.24998 -1.65842e-14 1.98927e-05 -3.54043 
87 1 0.687556 0.249944 0.0624269 1.08101e-05 -3.54031 
310 1 0.687608 0.187366 0.124841 1.6681e-05 -3.54019 
341 1 0.625076 0.249888 0.124857 2.74469e-05 -3.54021 
58 1 0.812575 0.18743 -2.64734e-14 3.95498e-06 -3.5402 
60 1 0.750082 0.187418 0.0624251 6.74851e-06 -3.54022 
89 1 0.750061 0.249951 -5.85977e-14 5.74966e-06 -3.54028 
91 1 0.81259 0.249934 0.0624284 6.47818e-06 -3.54021 
314 1 0.812617 0.187395 0.12488 8.59168e-06 -3.5402 
345 1 0.750134 0.249892 0.124841 1.6681e-05 -3.54019 
62 1 0.937537 0.187435 8.16928e-15 1.07804e-06 -3.54015 
64 1 0.875072 0.187427 0.0624486 3.48183e-06 -3.54017 
93 1 0.875068 0.249942 -1.65228e-14 3.14435e-06 -3.54016 
95 1 0.937545 0.249941 0.0624547 2.31336e-06 -3.54014 
318 1 0.937551 0.187427 0.124928 3.48183e-06 -3.54017 
349 1 0.875104 0.249923 0.124896 8.0602e-06 -3.54018 
66 1 0.0624572 0.312458 -1.22846e-16 1.39475e-06 -3.54011 
68 1 -3.07116e-16 0.312458 0.0624572 1.39475e-06 -3.54011 
72 1 0.124918 0.312454 0.0624378 5.52978e-06 -3.54016 
97 1 9.27489e-15 0.374978 9.88912e-15 5.10547e-08 -3.54007 
99 1 0.0624496 0.374977 0.0624496 3.25208e-06 -3.54011 
101 1 0.12493 0.37498 -3.6731e-14 3.82288e-06 -3.54016 
322 1 0.0624378 0.312454 0.124918 5.52978e-06 -3.54016 
353 1 -3.3967e-14 0.37498 0.12493 3.82288e-06 -3.54016 
357 1 0.124883 0.374968 0.124883 1.23897e-05 -3.54015 
70 1 0.187429 0.312464 -5.32539e-14 4.75474e-06 -3.54024 
76 1 0.249926 0.31246 0.0624252 9.50407e-06 -3.54029 
103 1 0.18741 0.374978 0.062425 8.16447e-06 -3.54022 
105 1 0.249961 0.37499 -2.8746e-14 1.35226e-05 -3.5404 
326 1 0.18736 0.312429 0.124855 1.62305e-05 -3.54016 
361 1 0.249854 0.37496 0.124847 2.91123e-05 -3.54015 
74 1 0.31248 0.312487 -1.66457e-14 1.98927e-05 -3.54043 
80 1 0.374987 0.312487 0.0624825 3.91252e-05 -3.54045 
107 1 0.312471 0.374992 0.0624707 3.14272e-05 -3.54043 
109 1 0.375003 0.375002 4.60673e-15 8.59176e-06 -3.54025 
330 1 0.312388 0.312424 0.124857 2.74469e-05 -3.54021 
365 1 0.374964 0.374986 0.124982 0.000136126 -3.54063 
78 1 0.437502 0.312503 4.72958e-15 8.59176e-06 -3.54025 
82 1 0.562498 0.312503 4.60673e-15 8.59176e-06 -3.54025 
84 1 0.5 0.312497 0.0625059 1.71234e-05 -3.54025 
111 1 0.437502 0.375002 0.0625183 9.89721e-06 -3.54019 
113 1 0.5 0.375006 1.44959e-14 1.7019e-06 -3.54017 
115 1 0.562498 0.375002 0.0625183 9.89721e-06 -3.54019 
334 1 0.437486 0.312464 0.124982 0.000136126 -3.54063 
338 1 0.562514 0.312464 0.124982 0.000136126 -3.54063 
369 1 0.5 0.374994 0.125045 3.39838e-05 -3.5401 
86 1 0.68752 0.312487 -1.64e-14 1.98927e-05 -3.54043 
88 1 0.625013 0.312487 0.0624825 3.91252e-05 -3.54045 
117 1 0.624997 0.375002 4.97527e-15 8.59176e-06 -3.54025 
119 1 0.687529 0.374992 0.0624707 3.14272e-05 -3.54043 
342 1 0.687612 0.312424 0.124857 2.74469e-05 -3.54021 
373 1 0.625036 0.374986 0.124982 0.000136126 -3.54063 
90 1 0.812571 0.312464 -5.30082e-14 4.75474e-06 -3.54024 
92 1 0.750074 0.31246 0.0624252 9.50407e-06 -3.54029 
121 1 0.750039 0.37499 -2.83775e-14 1.35226e-05 -3.5404 
123 1 0.81259 0.374978 0.062425 8.16447e-06 -3.54022 
346 1 0.81264 0.312429 0.124855 1.62305e-05 -3.54016 
377 1 0.750146 0.37496 0.124847 2.91123e-05 -3.54015 
94 1 0.937543 0.312458 -2.45693e-16 1.39475e-06 -3.54011 
96 1 0.875082 0.312454 0.0624378 5.52978e-06 -3.54016 
125 1 0.87507 0.37498 -3.65468e-14 3.82288e-06 -3.54016 
127 1 0.93755 0.374977 0.0624496 3.25208e-06 -3.54011 
350 1 0.937562 0.312454 0.124918 5.52978e-06 -3.54016 
381 1 0.875117 0.374968 0.124883 1.23897e-05 -3.54015 
98 1 0.0624547 0.4375 -9.64343e-15 1.62009e-06 -3.54008 
100 1 -8.66066e-15 0.4375 0.0624547 1.62009e-06 -3.54008 
104 1 0.124914 0.4375 0.0624342 7.01064e-06 -3.54014 
129 1 9.52058e-15 0.500022 1.0012e-14 5.10547e-08 -3.54007 
130 1 0.0624572 0.562542 0 1.39475e-06 -3.54011 
131 1 0.0624496 0.500023 0.0624496 3.25208e-06 -3.54011 
132 1 2.45693e-16 0.562542 0.0624572 1.39475e-06 -3.54011 
133 1 0.12493 0.50002 -3.65468e-14 3.82288e-06 -3.54016 
136 1 0.124918 0.562546 0.0624378 5.52978e-06 -3.54016 
354 1 0.0624342 0.4375 0.124914 7.01064e-06 -3.54014 
385 1 -3.40898e-14 0.50002 0.12493 3.82288e-06 -3.54016 
386 1 0.0624378 0.562546 0.124918 5.52978e-06 -3.54016 
389 1 0.124883 0.500032 0.124883 1.23897e-05 -3.54015 
102 1 0.187437 0.4375 -4.05393e-14 6.40627e-06 -3.54031 
108 1 0.249939 0.4375 0.0624442 1.60809e-05 -3.54039 
134 1 0.187429 0.562536 -5.2701e-14 4.75474e-06 -3.54024 
135 1 0.18741 0.500022 0.062425 8.16447e-06 -3.54022 
137 1 0.249961 0.50001 -2.83161e-14 1.35226e-05 -3.5404 
140 1 0.249926 0.56254 0.0624252 9.50407e-06 -3.54029 
358 1 0.187345 0.4375 0.124849 2.85844e-05 -3.54008 
390 1 0.18736 0.562571 0.124855 1.62305e-05 -3.54016 
393 1 0.249854 0.50004 0.124847 2.91123e-05 -3.54015 
106 1 0.312491 0.4375 -7.37078e-15 1.3098e-05 -3.54032 
112 1 0.374997 0.4375 0.0625059 1.71234e-05 -3.54025 
138 1 0.31248 0.562513 -1.64e-14 1.98927e-05 -3.54043 
139 1 0.312471 0.500008 0.0624707 3.14272e-05 -3.54043 
141 1 0.375003 0.499998 4.91385e-15 8.59176e-06 -3.54025 
144 1 0.374987 0.562513 0.0624825 3.91252e-05 -3.54045 
362 1 0.312414 0.4375 0.124923 8.34697e-05 -3.54061 
394 1 0.312388 0.562576 0.124857 2.74469e-05 -3.54021 
397 1 0.374964 0.500014 0.124982 0.000136126 -3.54063 
110 1 0.437506 0.4375 1.46187e-14 1.7019e-06 -3.54017 
114 1 0.562494 0.4375 1.46801e-14 1.7019e-06 -3.54017 
116 1 0.5 0.4375 0.0625305 2.35283e-06 -3.54014 
142 1 0.437502 0.562497 4.85243e-15 8.59176e-06 -3.54025 
143 1 0.437502 0.499998 0.0625183 9.89721e-06 -3.54019 
145 1 0.5 0.499994 1.44959e-14 1.7019e-06 -3.54017 
146 1 0.562498 0.562497 5.0367e-15 8.59176e-06 -3.54025 
147 1 0.562498 0.499998 0.0625183 9.89721e-06 -3.54019 
148 1 0.5 0.562503 0.0625059 1.71234e-05 -3.54025 
366 1 0.437494 0.4375 0.125045 3.39838e-05 -3.5401 
370 1 0.562506 0.4375 0.125045 3.39838e-05 -3.5401 
398 1 0.437486 0.562536 0.124982 0.000136126 -3.54063 
401 1 0.5 0.500006 0.125045 3.39838e-05 -3.5401 
402 1 0.562514 0.562536 0.124982 0.000136126 -3.54063 
118 1 0.687509 0.4375 -7.00224e-15 1.3098e-05 -3.54032 
120 1 0.625003 0.4375 0.0625059 1.71234e-05 -3.54025 
149 1 0.624997 0.499998 4.97527e-15 8.59176e-06 -3.54025 
150 1 0.68752 0.562513 -1.59086e-14 1.98927e-05 -3.54043 
151 1 0.687529 0.500008 0.0624707 3.14272e-05 -3.54043 
152 1 0.625013 0.562513 0.0624825 3.91252e-05 -3.54045 
374 1 0.687586 0.4375 0.124923 8.34697e-05 -3.54061 
405 1 0.625036 0.500014 0.124982 0.000136126 -3.54063 
406 1 0.687612 0.562576 0.124857 2.74469e-05 -3.54021 
122 1 0.812563 0.4375 -4.01093e-14 6.40627e-06 -3.54031 
124 1 0.750061 0.4375 0.0624442 1.60809e-05 -3.54039 
153 1 0.750039 0.50001 -2.78861e-14 1.35226e-05 -3.5404 
154 1 0.812571 0.562536 -5.23939e-14 4.75474e-06 -3.54024 
155 1 0.81259 0.500022 0.062425 8.16447e-06 -3.54022 
156 1 0.750074 0.56254 0.0624252 9.50407e-06 -3.54029 
378 1 0.812655 0.4375 0.124849 2.85844e-05 -3.54008 
409 1 0.750146 0.50004 0.124847 2.91123e-05 -3.54015 
410 1 0.81264 0.562571 0.124855 1.62305e-05 -3.54016 
126 1 0.937545 0.4375 -9.09062e-15 1.62009e-06 -3.54008 
128 1 0.875086 0.4375 0.0624342 7.01064e-06 -3.54014 
157 1 0.87507 0.50002 -3.63625e-14 3.82288e-06 -3.54016 
158 1 0.937543 0.562542 2.45693e-16 1.39475e-06 -3.54011 
159 1 0.93755 0.500023 0.0624496 3.25208e-06 -3.54011 
160 1 0.875082 0.562546 0.0624378 5.52978e-06 -3.54016 
382 1 0.937566 0.4375 0.124914 7.01064e-06 -3.54014 
413 1 0.875117 0.500032 0.124883 1.23897e-05 -3.54015 
414 1 0.937562 0.562546 0.124918 5.52978e-06 -3.54016 
161 1 1.12404e-14 0.625056 1.22846e-14 2.58378e-07 -3.54012 
162 1 0.0624626 0.687565 8.53781e-15 1.07804e-06 -3.54015 
163 1 0.0624547 0.625059 0.0624547 2.31336e-06 -3.54014 
164 1 7.86216e-15 0.687565 0.0624626 1.07804e-06 -3.54015 
165 1 0.124932 0.625058 -1.62157e-14 3.14435e-06 -3.54016 
168 1 0.124928 0.687573 0.0624486 3.48183e-06 -3.54017 
417 1 -1.50487e-14 0.625058 0.124932 3.14435e-06 -3.54016 
418 1 0.0624486 0.687573 0.124928 3.48183e-06 -3.54017 
421 1 0.124896 0.625077 0.124896 8.0602e-06 -3.54018 
166 1 0.187425 0.68757 -2.63505e-14 3.95498e-06 -3.5402 
167 1 0.18741 0.625066 0.0624284 6.47818e-06 -3.54021 
169 1 0.249939 0.625049 -5.84134e-14 5.74966e-06 -3.54028 
172 1 0.249918 0.687582 0.0624251 6.74851e-06 -3.54022 
422 1 0.187383 0.687605 0.12488 8.59168e-06 -3.5402 
425 1 0.249866 0.625108 0.124841 1.6681e-05 -3.54019 
170 1 0.312451 0.687561 -5.84748e-14 5.74966e-06 -3.54028 
171 1 0.312444 0.625056 0.0624269 1.08101e-05 -3.54031 
173 1 0.374987 0.62502 -1.67071e-14 1.98927e-05 -3.54043 
176 1 0.37496 0.687574 0.0624252 9.50407e-06 -3.54029 
426 1 0.312392 0.687634 0.124841 1.6681e-05 -3.54019 
429 1 0.374924 0.625112 0.124857 2.74469e-05 -3.54021 
174 1 0.43749 0.687539 -2.79475e-14 1.35226e-05 -3.5404 
175 1 0.437492 0.625029 0.0624707 3.14272e-05 -3.54043 
177 1 0.5 0.625009 -7.06366e-15 1.3098e-05 -3.54032 
178 1 0.56251 0.687539 -2.78861e-14 1.35226e-05 -3.5404 
179 1 0.562508 0.625029 0.0624707 3.14272e-05 -3.54043 
180 1 0.5 0.687561 0.0624442 1.60809e-05 -3.54039 
430 1 0.43746 0.687646 0.124847 2.91123e-05 -3.54015 
433 1 0.5 0.625086 0.124923 8.34697e-05 -3.54061 
434 1 0.56254 0.687646 0.124847 2.91123e-05 -3.54015 
181 1 0.625013 0.62502 -1.60929e-14 1.98927e-05 -3.54043 
182 1 0.687549 0.687561 -5.80449e-14 5.74966e-06 -3.54028 
183 1 0.687556 0.625056 0.0624269 1.08101e-05 -3.54031 
184 1 0.62504 0.687574 0.0624252 9.50407e-06 -3.54029 
437 1 0.625076 0.625112 0.124857 2.74469e-05 -3.54021 
438 1 0.687608 0.687634 0.124841 1.6681e-05 -3.54019 
185 1 0.750061 0.625049 -5.78606e-14 5.74966e-06 -3.54028 
186 1 0.812575 0.68757 -2.56749e-14 3.95498e-06 -3.5402 
187 1 0.81259 0.625066 0.0624284 6.47818e-06 -3.54021 
188 1 0.750082 0.687582 0.0624251 6.74851e-06 -3.54022 
441 1 0.750134 0.625108 0.124841 1.6681e-05 -3.54019 
442 1 0.812617 0.687605 0.12488 8.59168e-06 -3.5402 
189 1 0.875068 0.625058 -1.61543e-14 3.14435e-06 -3.54016 
190 1 0.937537 0.687565 8.78351e-15 1.07804e-06 -3.54015 
191 1 0.937545 0.625059 0.0624547 2.31336e-06 -3.54014 
192 1 0.875072 0.687573 0.0624486 3.48183e-06 -3.54017 
445 1 0.875104 0.625077 0.124896 8.0602e-06 -3.54018 
446 1 0.937551 0.687573 0.124928 3.48183e-06 -3.54017 
193 1 1.44959e-14 0.750062 1.57243e-14 4.7208e-07 -3.54015 
194 1 0.0624696 0.81255 1.54786e-14 5.67794e-07 -3.54016 
195 1 0.0624634 0.750066 0.0624634 1.31178e-06 -3.54016 
196 1 1.44959e-14 0.81255 0.0624696 5.67794e-07 -3.54016 
197 1 0.12494 0.750067 3.07116e-15 1.88107e-06 -3.54017 
200 1 0.124942 0.812558 0.0624628 1.51045e-06 -3.54017 
449 1 3.194e-15 0.750067 0.12494 1.88107e-06 -3.54017 
450 1 0.0624628 0.812558 0.124942 1.51045e-06 -3.54017 
453 1 0.12492 0.750084 0.12492 3.86419e-06 -3.54018 
198 1 0.187433 0.81256 3.13258e-15 1.88107e-06 -3.54017 
199 1 0.18742 0.75008 0.0624457 3.85098e-06 -3.54019 
201 1 0.24993 0.750075 -2.65348e-14 3.95498e-06 -3.5402 
204 1 0.249927 0.812572 0.0624486 3.48183e-06 -3.54017 
454 1 0.187416 0.81258 0.12492 3.86419e-06 -3.54018 
457 1 0.249895 0.750117 0.12488 8.59168e-06 -3.5402 
202 1 0.312442 0.812568 -1.68914e-14 3.14435e-06 -3.54016 
203 1 0.312434 0.75009 0.0624284 6.47818e-06 -3.54021 
205 1 0.374964 0.750071 -5.28239e-14 4.75474e-06 -3.54024 
208 1 0.374954 0.812582 0.0624378 5.52978e-06 -3.54016 
458 1 0.312423 0.812604 0.124896 8.0602e-06 -3.54018 
461 1 0.374929 0.75014 0.124855 1.62305e-05 -3.54016 
206 1 0.43748 0.81257 -3.63625e-14 3.82288e-06 -3.54016 
207 1 0.437478 0.75009 0.062425 8.16447e-06 -3.54022 
209 1 0.5 0.750063 -4.02936e-14 6.40627e-06 -3.54031 
210 1 0.56252 0.81257 -3.62396e-14 3.82288e-06 -3.54016 
211 1 0.562522 0.75009 0.062425 8.16447e-06 -3.54022 
212 1 0.5 0.812586 0.0624342 7.01064e-06 -3.54014 
462 1 0.437468 0.812617 0.124883 1.23897e-05 -3.54015 
465 1 0.5 0.750155 0.124849 2.85844e-05 -3.54008 
466 1 0.562532 0.812617 0.124883 1.23897e-05 -3.54015 
213 1 0.625036 0.750071 -5.20868e-14 4.75474e-06 -3.54024 
214 1 0.687558 0.812568 -1.59086e-14 3.14435e-06 -3.54016 
215 1 0.687566 0.75009 0.0624284 6.47818e-06 -3.54021 
216 1 0.625046 0.812582 0.0624378 5.52978e-06 -3.54016 
469 1 0.625071 0.75014 0.124855 1.62305e-05 -3.54016 
470 1 0.687577 0.812604 0.124896 8.0602e-06 -3.54018 
217 1 0.75007 0.750075 -2.54906e-14 3.95498e-06 -3.5402 
218 1 0.812567 0.81256 3.68539e-15 1.88107e-06 -3.54017 
219 1 0.81258 0.75008 0.0624457 3.85098e-06 -3.54019 
220 1 0.750073 0.812572 0.0624486 3.48183e-06 -3.54017 
473 1 0.750105 0.750117 0.12488 8.59168e-06 -3.5402 
474 1 0.812584 0.81258 0.12492 3.86419e-06 -3.54018 
221 1 0.87506 0.750067 3.68539e-15 1.88107e-06 -3.54017 
222 1 0.93753 0.81255 1.56629e-14 5.67794e-07 -3.54016 
223 1 0.937537 0.750066 0.0624634 1.31178e-06 -3.54016 
224 1 0.875058 0.812558 0.0624628 1.51045e-06 -3.54017 
477 1 0.87508 0.750084 0.12492 3.86419e-06 -3.54018 
478 1 0.937537 0.812558 0.124942 1.51045e-06 -3.54017 
225 1 1.71371e-14 0.875027 1.81812e-14 1.12465e-07 -3.54016 
226 1 0.062473 0.9375 1.81812e-14 1.12465e-07 -3.54016 
227 1 0.062471 0.875029 0.062471 4.18221e-07 -3.54016 
228 1 1.65228e-14 0.9375 0.062473 1.12465e-07 -3.54016 
229 1 0.12495 0.87503 1.53558e-14 5.67794e-07 -3.54016 
232 1 0.12495 0.9375 0.0624696 5.67794e-07 -3.54016 
481 1 1.41273e-14 0.87503 0.12495 5.67794e-07 -3.54016 
482 1 0.0624696 0.9375 0.12495 5.67794e-07 -3.54016 
485 1 0.124942 0.875037 0.124942 1.51045e-06 -3.54017 
230 1 0.187438 0.9375 1.46801e-14 4.7208e-07 -3.54015 
231 1 0.187434 0.875037 0.0624634 1.31178e-06 -3.54016 
233 1 0.249935 0.875037 7.86216e-15 1.07804e-06 -3.54015 
236 1 0.249935 0.9375 0.0624626 1.07804e-06 -3.54015 
486 1 0.187433 0.9375 0.12494 1.88107e-06 -3.54017 
489 1 0.249927 0.875051 0.124928 3.48183e-06 -3.54017 
234 1 0.312444 0.9375 1.19161e-14 2.58378e-07 -3.54012 
235 1 0.312441 0.875045 0.0624547 2.31336e-06 -3.54014 
237 1 0.374958 0.875043 -1.22846e-16 1.39475e-06 -3.54011 
240 1 0.374958 0.9375 0.0624572 1.39475e-06 -3.54011 
490 1 0.312442 0.9375 0.124932 3.14435e-06 -3.54016 
493 1 0.374954 0.875062 0.124918 5.52978e-06 -3.54016 
238 1 0.437478 0.9375 1.00734e-14 5.10547e-08 -3.54007 
239 1 0.437477 0.87505 0.0624496 3.25208e-06 -3.54011 
241 1 0.5 0.875045 -8.90635e-15 1.62009e-06 -3.54008 
242 1 0.562522 0.9375 1.03805e-14 5.10547e-08 -3.54007 
243 1 0.562523 0.87505 0.0624496 3.25208e-06 -3.54011 
244 1 0.5 0.9375 0.0624547 1.62009e-06 -3.54008 
494 1 0.43748 0.9375 0.12493 3.82288e-06 -3.54016 
497 1 0.5 0.875066 0.124914 7.01064e-06 -3.54014 
498 1 0.56252 0.9375 0.12493 3.82288e-06 -3.54016 
245 1 0.625042 0.875043 5.52808e-16 1.39475e-06 -3.54011 
246 1 0.687556 0.9375 1.22232e-14 2.58378e-07 -3.54012 
247 1 0.687559 0.875045 0.0624547 2.31336e-06 -3.54014 
248 1 0.625042 0.9375 0.0624572 1.39475e-06 -3.54011 
501 1 0.625046 0.875062 0.124918 5.52978e-06 -3.54016 
502 1 0.687558 0.9375 0.124932 3.14435e-06 -3.54016 
249 1 0.750065 0.875037 9.0292e-15 1.07804e-06 -3.54015 
250 1 0.812562 0.9375 1.57857e-14 4.7208e-07 -3.54015 
251 1 0.812566 0.875037 0.0624634 1.31178e-06 -3.54016 
252 1 0.750065 0.9375 0.0624626 1.07804e-06 -3.54015 
505 1 0.750073 0.875051 0.124928 3.48183e-06 -3.54017 
506 1 0.812567 0.9375 0.12494 1.88107e-06 -3.54017 
253 1 0.87505 0.87503 1.62157e-14 5.67794e-07 -3.54016 
254 1 0.937527 0.9375 1.84884e-14 1.12465e-07 -3.54016 
255 1 0.937529 0.875029 0.062471 4.18221e-07 -3.54016 
256 1 0.87505 0.9375 0.0624696 5.67794e-07 -3.54016 
509 1 0.875058 0.875037 0.124942 1.51045e-06 -3.54017 
510 1 0.93753 0.9375 0.12495 5.67794e-07 -3.54016 
259 1 0.0624634 -3.65687e-05 0.187434 1.31178e-06 -3.54016 
260 1 2.27266e-15 0.0624404 0.187433 1.88107e-06 -3.54017 
264 1 0.12492 0.0624204 0.187416 3.86419e-06 -3.54018 
291 1 0.0624457 0.12492 0.18742 3.85098e-06 -3.54019 
513 1 7.24793e-15 -3.73753e-05 0.249935 1.07804e-06 -3.54015 
514 1 0.0624486 0.0624277 0.249927 3.48183e-06 -3.54017 
517 1 0.124928 -5.14258e-05 0.249927 3.48183e-06 -3.54017 
545 1 -2.52449e-14 0.124925 0.24993 3.95498e-06 -3.5402 
549 1 0.12488 0.124883 0.249895 8.59168e-06 -3.5402 
263 1 0.18742 -5.42703e-05 0.18742 3.85098e-06 -3.54019 
268 1 0.249895 0.0623804 0.187383 8.59168e-06 -3.5402 
295 1 0.187371 0.124871 0.187371 8.78556e-06 -3.5402 
518 1 0.187383 0.0623804 0.249895 8.59168e-06 -3.5402 
521 1 0.249918 -7.49162e-05 0.249918 6.74851e-06 -3.54022 
553 1 0.249824 0.1248 0.249824 1.94296e-05 -3.54018 
267 1 0.312434 -7.16332e-05 0.18741 6.47818e-06 -3.54021 
272 1 0.374929 0.0623551 0.18736 1.62305e-05 -3.54016 
299 1 0.312368 0.124817 0.187317 2.0129e-05 -3.54017 
522 1 0.312392 0.062341 0.249866 1.6681e-05 -3.54019 
525 1 0.37496 -7.47661e-05 0.249926 9.50407e-06 -3.54029 
557 1 0.374858 0.124749 0.249769 4.7184e-05 -3.54006 
271 1 0.437478 -7.49584e-05 0.18741 8.16447e-06 -3.54022 
275 1 0.562522 -7.49584e-05 0.18741 8.16447e-06 -3.54022 
276 1 0.5 0.0623494 0.187345 2.85844e-05 -3.54008 
303 1 0.437433 0.124789 0.187289 4.29984e-05 -3.54012 
307 1 0.562567 0.124789 0.187289 4.29984e-05 -3.54012 
526 1 0.43746 0.0623465 0.249854 2.91123e-05 -3.54015 
529 1 0.5 -5.57634e-05 0.249939 1.60809e-05 -3.54039 
530 1 0.56254 0.0623465 0.249854 2.91123e-05 -3.54015 
561 1 0.5 0.12473 0.249714 0.000159908 -3.53979 
279 1 0.687566 -7.16332e-05 0.18741 6.47818e-06 -3.54021 
280 1 0.625071 0.0623551 0.18736 1.62305e-05 -3.54016 
311 1 0.687632 0.124817 0.187317 2.0129e-05 -3.54017 
533 1 0.62504 -7.47661e-05 0.249926 9.50407e-06 -3.54029 
534 1 0.687608 0.062341 0.249866 1.6681e-05 -3.54019 
565 1 0.625142 0.124749 0.249769 4.7184e-05 -3.54006 
283 1 0.81258 -5.42703e-05 0.18742 3.85098e-06 -3.54019 
284 1 0.750105 0.0623804 0.187383 8.59168e-06 -3.5402 
315 1 0.812629 0.124871 0.187371 8.78556e-06 -3.5402 
537 1 0.750082 -7.49162e-05 0.249918 6.74851e-06 -3.54022 
538 1 0.812617 0.0623804 0.249895 8.59168e-06 -3.5402 
569 1 0.750176 0.1248 0.249824 1.94296e-05 -3.54018 
287 1 0.937537 -3.65687e-05 0.187434 1.31178e-06 -3.54016 
288 1 0.87508 0.0624204 0.187416 3.86419e-06 -3.54018 
319 1 0.937554 0.12492 0.18742 3.85098e-06 -3.54019 
541 1 0.875072 -5.14258e-05 0.249927 3.48183e-06 -3.54017 
542 1 0.937551 0.0624277 0.249927 3.48183e-06 -3.54017 
573 1 0.87512 0.124883 0.249895 8.59168e-06 -3.5402 
292 1 -2.48764e-14 0.18743 0.187425 3.95498e-06 -3.5402 
296 1 0.12488 0.187395 0.187383 8.59168e-06 -3.5402 
323 1 0.0624284 0.249934 0.18741 6.47818e-06 -3.54021 
546 1 0.0624251 0.187418 0.249918 6.74851e-06 -3.54022 
577 1 -5.4298e-14 0.249951 0.249939 5.74966e-06 -3.54028 
581 1 0.124841 0.249892 0.249866 1.6681e-05 -3.54019 
300 1 0.249824 0.187324 0.1873 1.94296e-05 -3.54018 
327 1 0.187317 0.249868 0.187317 2.0129e-05 -3.54017 
550 1 0.1873 0.187324 0.249824 1.94296e-05 -3.54018 
585 1 0.249716 0.249761 0.249716 4.47262e-05 -3.54013 
304 1 0.374858 0.187269 0.187249 4.7184e-05 -3.54006 
331 1 0.312299 0.249799 0.187235 4.69329e-05 -3.54009 
554 1 0.312261 0.187216 0.249716 4.47262e-05 -3.54013 
589 1 0.374718 0.249645 0.2496 0.000118905 -3.53984 
308 1 0.5 0.187214 0.18723 0.000159908 -3.53979 
335 1 0.43741 0.249754 0.187242 0.000162829 -3.53999 
339 1 0.56259 0.249754 0.187242 0.000162829 -3.53999 
558 1 0.437341 0.187154 0.249654 0.00017794 -3.54023 
562 1 0.562659 0.187154 0.249654 0.00017794 -3.54023 
593 1 0.5 0.24944 0.249505 0.00130275 -3.53877 
312 1 0.625142 0.187269 0.187249 4.7184e-05 -3.54006 
343 1 0.687701 0.249799 0.187235 4.69329e-05 -3.54009 
566 1 0.687739 0.187216 0.249716 4.47262e-05 -3.54013 
597 1 0.625282 0.249645 0.2496 0.000118905 -3.53984 
316 1 0.750176 0.187324 0.1873 1.94296e-05 -3.54018 
347 1 0.812683 0.249868 0.187317 2.0129e-05 -3.54017 
570 1 0.8127 0.187324 0.249824 1.94296e-05 -3.54018 
601 1 0.750284 0.249761 0.249716 4.47262e-05 -3.54013 
320 1 0.87512 0.187395 0.187383 8.59168e-06 -3.5402 
351 1 0.937572 0.249934 0.18741 6.47818e-06 -3.54021 
574 1 0.937575 0.187418 0.249918 6.74851e-06 -3.54022 
605 1 0.875159 0.249892 0.249866 1.6681e-05 -3.54019 
324 1 -4.91999e-14 0.312464 0.187429 4.75474e-06 -3.54024 
328 1 0.124855 0.312429 0.18736 1.62305e-05 -3.54016 
355 1 0.062425 0.374978 0.18741 8.16447e-06 -3.54022 
578 1 0.0624252 0.31246 0.249926 9.50407e-06 -3.54029 
609 1 -2.61663e-14 0.37499 0.249961 1.35226e-05 -3.5404 
613 1 0.124847 0.37496 0.249854 2.91123e-05 -3.54015 
332 1 0.249769 0.312358 0.187249 4.7184e-05 -3.54006 
359 1 0.187289 0.374933 0.187289 4.29984e-05 -3.54012 
582 1 0.187249 0.312358 0.249769 4.7184e-05 -3.54006 
617 1 0.249654 0.374841 0.249654 0.00017794 -3.54023 
336 1 0.374832 0.312332 0.187255 0.000132966 -3.54001 
363 1 0.312254 0.37491 0.187242 0.000162829 -3.53999 
586 1 0.312145 0.312218 0.2496 0.000118905 -3.53984 
621 1 0.3746 0.374783 0.249545 0.00129804 -3.53941 
340 1 0.5 0.312388 0.187445 0.000604733 -3.54143 
367 1 0.437469 0.374969 0.187521 0.000654941 -3.54098 
371 1 0.562531 0.374969 0.187521 0.000654941 -3.54098 
590 1 0.437283 0.3121 0.249545 0.00129804 -3.53941 
594 1 0.562717 0.3121 0.249545 0.00129804 -3.53941 
625 1 0.5 0.37491 0.250061 0.00521034 -3.54342 
344 1 0.625168 0.312332 0.187255 0.000132966 -3.54001 
375 1 0.687746 0.37491 0.187242 0.000162829 -3.53999 
598 1 0.687855 0.312218 0.2496 0.000118905 -3.53984 
629 1 0.6254 0.374783 0.249545 0.00129804 -3.53941 
348 1 0.750231 0.312358 0.187249 4.7184e-05 -3.54006 
379 1 0.812711 0.374933 0.187289 4.29984e-05 -3.54012 
602 1 0.812751 0.312358 0.249769 4.7184e-05 -3.54006 
633 1 0.750346 0.374841 0.249654 0.00017794 -3.54023 
352 1 0.875145 0.312429 0.18736 1.62305e-05 -3.54016 
383 1 0.937575 0.374978 0.18741 8.16447e-06 -3.54022 
606 1 0.937575 0.31246 0.249926 9.50407e-06 -3.54029 
637 1 0.875153 0.37496 0.249854 2.91123e-05 -3.54015 
356 1 -3.75295e-14 0.4375 0.187437 6.40627e-06 -3.54031 
360 1 0.124849 0.4375 0.187345 2.85844e-05 -3.54008 
387 1 0.062425 0.500022 0.18741 8.16447e-06 -3.54022 
388 1 -4.90157e-14 0.562536 0.187429 4.75474e-06 -3.54024 
392 1 0.124855 0.562571 0.18736 1.62305e-05 -3.54016 
610 1 0.0624442 0.4375 0.249939 1.60809e-05 -3.54039 
641 1 -2.61663e-14 0.50001 0.249961 1.35226e-05 -3.5404 
642 1 0.0624252 0.56254 0.249926 9.50407e-06 -3.54029 
645 1 0.124847 0.50004 0.249854 2.91123e-05 -3.54015 
364 1 0.249714 0.4375 0.18723 0.000159908 -3.53979 
391 1 0.187289 0.500067 0.187289 4.29984e-05 -3.54012 
396 1 0.249769 0.562642 0.187249 4.7184e-05 -3.54006 
614 1 0.18723 0.4375 0.249714 0.000159908 -3.53979 
646 1 0.187249 0.562642 0.249769 4.7184e-05 -3.54006 
649 1 0.249654 0.500159 0.249654 0.00017794 -3.54023 
368 1 0.374888 0.4375 0.187445 0.000604733 -3.54143 
395 1 0.312254 0.50009 0.187242 0.000162829 -3.53999 
400 1 0.374832 0.562668 0.187255 0.000132966 -3.54001 
618 1 0.31194 0.4375 0.249505 0.00130275 -3.53877 
650 1 0.312145 0.562782 0.2496 0.000118905 -3.53984 
653 1 0.3746 0.500217 0.249545 0.00129804 -3.53941 
372 1 0.5 0.4375 0.187595 8.44373e-05 -3.53954 
399 1 0.437469 0.500031 0.187521 0.000654941 -3.54098 
403 1 0.562531 0.500031 0.187521 0.000654941 -3.54098 
404 1 0.5 0.562612 0.187445 0.000604733 -3.54143 
622 1 0.43741 0.4375 0.250061 0.00521034 -3.54342 
626 1 0.56259 0.4375 0.250061 0.00521034 -3.54342 
654 1 0.437283 0.5629 0.249545 0.00129804 -3.53941 
657 1 0.5 0.50009 0.250061 0.00521034 -3.54342 
658 1 0.562717 0.5629 0.249545 0.00129804 -3.53941 
376 1 0.625112 0.4375 0.187445 0.000604733 -3.54143 
407 1 0.687746 0.50009 0.187242 0.000162829 -3.53999 
408 1 0.625168 0.562668 0.187255 0.000132966 -3.54001 
630 1 0.68806 0.4375 0.249505 0.00130275 -3.53877 
661 1 0.6254 0.500217 0.249545 0.00129804 -3.53941 
662 1 0.687855 0.562782 0.2496 0.000118905 -3.53984 
380 1 0.750286 0.4375 0.18723 0.000159908 -3.53979 
411 1 0.812711 0.500067 0.187289 4.29984e-05 -3.54012 
412 1 0.750231 0.562642 0.187249 4.7184e-05 -3.54006 
634 1 0.81277 0.4375 0.249714 0.000159908 -3.53979 
665 1 0.750346 0.500159 0.249654 0.00017794 -3.54023 
666 1 0.812751 0.562642 0.249769 4.7184e-05 -3.54006 